REMARK SMILES NC(=O)[C@H](CC(=O)O)NC(=O)[C@H](Cc1ccccc1)N[C@@H](CCc1ccccc1)C(=O)O
REMARK SMILES IDX 10 1 11 2 9 3 12 5 13 6 14 7 17 8 16 9 18 10 15 11 19 12
REMARK SMILES IDX 20 13 21 15 22 16 23 17 24 18 25 19 29 20 26 21 28 22 27 23
REMARK SMILES IDX 30 24 31 25 32 26 4 28 2 29 3 30 1 31 5 34 6 35 7 36 8 37
REMARK H PARENT 9 4 20 14 32 27 1 32 1 33 8 38
ROOT
ATOM      1  C   UNL     1      54.626  37.146  22.603  1.00  0.00     0.238 C 
ATOM      2  O   UNL     1      54.560  38.370  22.364  1.00  0.00    -0.273 OA
ATOM      3  N   UNL     1      55.798  36.380  22.308  1.00  0.00    -0.342 N 
ATOM      4  H   UNL     1      55.818  35.372  22.519  1.00  0.00     0.164 HD
ENDROOT
BRANCH   1   5
ATOM      5  C   UNL     1      53.429  36.418  23.217  1.00  0.00     0.149 C 
BRANCH   5   6
ATOM      6  C   UNL     1      53.643  36.251  24.754  1.00  0.00     0.064 C 
BRANCH   6   7
ATOM      7  C   UNL     1      53.731  37.590  25.498  1.00  0.00    -0.046 A 
ATOM      8  C   UNL     1      53.899  40.072  26.877  1.00  0.00     0.000 A 
ATOM      9  C   UNL     1      55.018  39.204  26.835  1.00  0.00     0.000 A 
ATOM     10  C   UNL     1      52.692  39.704  26.230  1.00  0.00     0.000 A 
ATOM     11  C   UNL     1      54.936  37.962  26.147  1.00  0.00     0.004 A 
ATOM     12  C   UNL     1      52.607  38.467  25.543  1.00  0.00     0.004 A 
ENDBRANCH   6   7
ENDBRANCH   5   6
BRANCH   5  13
ATOM     13  N   UNL     1      53.326  35.033  22.635  1.00  0.00    -0.293 NA
ATOM     14  H   UNL     1      54.195  34.517  22.834  1.00  0.00     0.124 HD
BRANCH  13  15
ATOM     15  C   UNL     1      53.118  35.098  21.140  1.00  0.00     0.165 C 
BRANCH  15  16
ATOM     16  C   UNL     1      53.051  33.616  20.630  1.00  0.00     0.036 C 
BRANCH  16  17
ATOM     17  C   UNL     1      52.852  33.528  19.096  1.00  0.00     0.038 C 
BRANCH  17  18
ATOM     18  C   UNL     1      52.708  32.105  18.636  1.00  0.00    -0.048 A 
ATOM     19  C   UNL     1      51.410  31.517  18.675  1.00  0.00     0.004 A 
ATOM     20  C   UNL     1      53.812  31.359  18.157  1.00  0.00     0.004 A 
ATOM     21  C   UNL     1      51.214  30.188  18.240  1.00  0.00     0.000 A 
ATOM     22  C   UNL     1      53.613  30.022  17.719  1.00  0.00     0.000 A 
ATOM     23  C   UNL     1      52.317  29.440  17.762  1.00  0.00     0.000 A 
ENDBRANCH  17  18
ENDBRANCH  16  17
ENDBRANCH  15  16
BRANCH  15  24
ATOM     24  C   UNL     1      51.724  35.714  20.803  1.00  0.00     0.320 C 
ATOM     25  O   UNL     1      50.596  35.269  21.419  1.00  0.00    -0.251 OA
BRANCH  24  26
ATOM     26  O   UNL     1      51.570  36.707  19.875  1.00  0.00    -0.480 OA
ATOM     27  H   UNL     1      50.670  37.074  19.687  1.00  0.00     0.296 HD
ENDBRANCH  24  26
ENDBRANCH  15  24
ENDBRANCH  13  15
ENDBRANCH   5  13
ENDBRANCH   1   5
BRANCH   3  28
ATOM     28  C   UNL     1      56.958  37.016  21.713  1.00  0.00     0.182 C 
BRANCH  28  29
ATOM     29  C   UNL     1      56.858  36.491  20.255  1.00  0.00     0.240 C 
ATOM     30  O   UNL     1      56.477  35.162  20.053  1.00  0.00    -0.273 OA
ATOM     31  N   UNL     1      57.152  37.282  19.137  1.00  0.00    -0.368 N 
ATOM     32  H   UNL     1      57.070  36.886  18.190  1.00  0.00     0.159 HD
ATOM     33  H   UNL     1      57.450  38.260  19.262  1.00  0.00     0.159 HD
ENDBRANCH  28  29
BRANCH  28  34
ATOM     34  C   UNL     1      58.225  36.481  22.495  1.00  0.00     0.157 C 
BRANCH  34  35
ATOM     35  C   UNL     1      59.593  37.141  22.132  1.00  0.00     0.305 C 
ATOM     36  O   UNL     1      59.672  38.384  21.532  1.00  0.00    -0.252 OA
BRANCH  35  37
ATOM     37  O   UNL     1      60.775  36.483  22.390  1.00  0.00    -0.481 OA
ATOM     38  H   UNL     1      61.639  36.907  22.157  1.00  0.00     0.296 HD
ENDBRANCH  35  37
ENDBRANCH  34  35
ENDBRANCH  28  34
ENDBRANCH   3  28
TORSDOF 15
