REMARK SMILES CC(C)C[C@H](N[P@](=O)(O)O[C@@H]1O[C@@H](C)[C@H](O)[C@@H](O)[C@H]1O)C(=O)N[C@@H](Cc1c[nH]c2ccccc12)C(=O)O
REMARK SMILES IDX 6 1 7 3 8 4 10 5 11 6 19 7 12 8 17 9 13 10 15 11 14 12 20 13
REMARK SMILES IDX 18 15 16 17 9 19 5 21 21 22 22 23 23 24 24 26 35 27 36 28
REMARK SMILES IDX 37 29 25 31 26 32 27 33 34 34 28 35 29 36 33 37 30 38 32 39
REMARK SMILES IDX 31 40 4 42 2 43 1 44 3 45
REMARK H PARENT 6 2 20 14 18 16 16 18 9 20 23 25 37 30 28 41
ROOT
ATOM      1  N   UNL     1      53.042  35.404  22.186  1.00  0.00    -0.210 NA
ATOM      2  H   UNL     1      52.800  34.709  22.907  1.00  0.00     0.135 HD
ENDROOT
BRANCH   1   3
ATOM      3  P   UNL     1      51.871  35.264  20.981  1.00  0.00     0.406 P 
ATOM      4  O   UNL     1      51.760  36.603  20.313  1.00  0.00    -0.241 OA
BRANCH   3   5
ATOM      5  O   UNL     1      52.447  34.223  19.958  1.00  0.00    -0.264 OA
BRANCH   5   6
ATOM      6  C   UNL     1      53.585  34.413  19.179  1.00  0.00     0.292 C 
ATOM      7  C   UNL     1      54.330  33.070  18.925  1.00  0.00     0.202 C 
ATOM      8  O   UNL     1      53.196  35.034  17.923  1.00  0.00    -0.344 OA
ATOM      9  C   UNL     1      53.474  32.143  18.023  1.00  0.00     0.179 C 
ATOM     10  C   UNL     1      52.383  34.201  17.073  1.00  0.00     0.150 C 
ATOM     11  C   UNL     1      53.116  32.895  16.709  1.00  0.00     0.174 C 
ATOM     12  C   UNL     1      52.026  34.978  15.824  1.00  0.00     0.041 C 
BRANCH   7  13
ATOM     13  O   UNL     1      55.591  33.319  18.337  1.00  0.00    -0.385 OA
ATOM     14  H   UNL     1      56.266  33.452  19.049  1.00  0.00     0.211 HD
ENDBRANCH   7  13
BRANCH   9  15
ATOM     15  O   UNL     1      54.178  30.899  17.781  1.00  0.00    -0.387 OA
ATOM     16  H   UNL     1      54.415  30.480  18.646  1.00  0.00     0.211 HD
ENDBRANCH   9  15
BRANCH  11  17
ATOM     17  O   UNL     1      52.256  32.064  15.890  1.00  0.00    -0.388 OA
ATOM     18  H   UNL     1      51.681  31.508  16.474  1.00  0.00     0.211 HD
ENDBRANCH  11  17
ENDBRANCH   5   6
ENDBRANCH   3   5
BRANCH   3  19
ATOM     19  O   UNL     1      50.659  34.722  21.552  1.00  0.00    -0.312 OA
ATOM     20  H   UNL     1      50.719  34.749  22.540  1.00  0.00     0.222 HD
ENDBRANCH   3  19
ENDBRANCH   1   3
BRANCH   1  21
ATOM     21  C   UNL     1      53.282  36.703  22.914  1.00  0.00     0.154 C 
BRANCH  21  22
ATOM     22  C   UNL     1      54.252  37.549  22.116  1.00  0.00     0.238 C 
ATOM     23  O   UNL     1      54.186  38.750  21.951  1.00  0.00    -0.273 OA
ATOM     24  N   UNL     1      55.357  36.807  21.491  1.00  0.00    -0.341 N 
ATOM     25  H   UNL     1      55.461  35.790  21.614  1.00  0.00     0.164 HD
BRANCH  24  26
ATOM     26  C   UNL     1      56.324  37.599  20.668  1.00  0.00     0.196 C 
BRANCH  26  27
ATOM     27  C   UNL     1      56.971  36.623  19.634  1.00  0.00     0.326 C 
ATOM     28  O   UNL     1      56.644  35.405  19.642  1.00  0.00    -0.250 OA
BRANCH  27  29
ATOM     29  O   UNL     1      57.784  37.100  18.849  1.00  0.00    -0.480 OA
ATOM     30  H   UNL     1      58.220  36.520  18.175  1.00  0.00     0.296 HD
ENDBRANCH  27  29
ENDBRANCH  26  27
BRANCH  26  31
ATOM     31  C   UNL     1      57.405  38.266  21.631  1.00  0.00     0.074 C 
BRANCH  31  32
ATOM     32  C   UNL     1      58.391  37.234  22.212  1.00  0.00    -0.020 A 
ATOM     33  C   UNL     1      58.088  36.195  23.061  1.00  0.00     0.087 A 
ATOM     34  C   UNL     1      59.809  37.168  21.970  1.00  0.00     0.003 A 
ATOM     35  N   UNL     1      59.233  35.480  23.364  1.00  0.00    -0.361 N 
ATOM     36  C   UNL     1      60.325  36.050  22.707  1.00  0.00     0.046 A 
ATOM     37  C   UNL     1      60.729  37.975  21.171  1.00  0.00     0.010 A 
ATOM     38  C   UNL     1      61.722  35.663  22.710  1.00  0.00     0.026 A 
ATOM     39  C   UNL     1      62.109  37.625  21.151  1.00  0.00     0.001 A 
ATOM     40  C   UNL     1      62.605  36.465  21.924  1.00  0.00     0.002 A 
ATOM     41  H   UNL     1      59.274  34.655  23.979  1.00  0.00     0.166 HD
ENDBRANCH  31  32
ENDBRANCH  26  31
ENDBRANCH  24  26
ENDBRANCH  21  22
BRANCH  21  42
ATOM     42  C   UNL     1      53.890  36.419  24.311  1.00  0.00     0.032 C 
BRANCH  42  43
ATOM     43  C   UNL     1      54.172  37.669  25.168  1.00  0.00    -0.015 C 
ATOM     44  C   UNL     1      54.771  37.153  26.475  1.00  0.00     0.007 C 
ATOM     45  C   UNL     1      52.864  38.470  25.469  1.00  0.00     0.007 C 
ENDBRANCH  42  43
ENDBRANCH  21  42
ENDBRANCH   1  21
TORSDOF 16
