REMARK SMILES O=C(CS)Nc1ccc(Cl)c(Cl)c1
REMARK SMILES IDX 2 1 5 2 1 3 6 5 7 6 8 7 13 8 9 9 11 10 10 11 12 12 3 13 4 14
REMARK H PARENT 5 4 4 15
ROOT
ATOM      1  C   UNL     1      53.400  37.055  20.985  1.00  0.00     0.234 C 
ATOM      2  N   UNL     1      54.551  36.472  20.469  1.00  0.00    -0.325 N 
ATOM      3  O   UNL     1      53.431  38.283  21.219  1.00  0.00    -0.274 OA
ATOM      4  H   UNL     1      54.549  35.447  20.371  1.00  0.00     0.169 HD
ENDROOT
BRANCH   2   5
ATOM      5  C   UNL     1      55.701  37.136  20.073  1.00  0.00     0.042 A 
ATOM      6  C   UNL     1      56.207  36.916  18.753  1.00  0.00     0.028 A 
ATOM      7  C   UNL     1      57.310  37.600  18.268  1.00  0.00     0.024 A 
ATOM      8  C   UNL     1      56.341  38.101  20.868  1.00  0.00     0.048 A 
ATOM      9  C   UNL     1      57.935  38.545  19.064  1.00  0.00     0.059 A 
ATOM     10  C   UNL     1      57.453  38.788  20.373  1.00  0.00     0.061 A 
ATOM     11  Cl  UNL     1      59.290  39.371  18.441  1.00  0.00    -0.083 Cl
ATOM     12  Cl  UNL     1      58.239  39.939  21.413  1.00  0.00    -0.083 Cl
ENDBRANCH   2   5
BRANCH   1  13
ATOM     13  C   UNL     1      52.146  36.302  21.286  1.00  0.00     0.166 C 
BRANCH  13  14
ATOM     14  S   UNL     1      51.273  35.940  19.689  1.00  0.00    -0.169 SA
ATOM     15  H   UNL     1      50.031  35.425  19.954  1.00  0.00     0.103 HD
ENDBRANCH  13  14
ENDBRANCH   1  13
TORSDOF 3
