REMARK SMILES O=C(CC(=O)Nc1ccc(Cl)c(Cl)c1)NO
REMARK SMILES IDX 3 1 2 2 15 3 1 4 16 6 4 8 6 9 5 10 7 12 14 13 8 14 12 15
REMARK SMILES IDX 9 16 10 17 13 18 11 19
REMARK H PARENT 15 5 16 7 6 11
ROOT
ATOM      1  C   UNL     1      53.657  35.600  21.751  1.00  0.00     0.202 C 
ENDROOT
BRANCH   1   2
ATOM      2  C   UNL     1      52.188  35.888  21.397  1.00  0.00     0.252 C 
ATOM      3  N   UNL     1      51.158  35.021  21.875  1.00  0.00    -0.237 N 
ATOM      4  O   UNL     1      51.930  36.857  20.711  1.00  0.00    -0.272 OA
ATOM      5  H   UNL     1      51.367  34.190  22.447  1.00  0.00     0.198 HD
BRANCH   3   6
ATOM      6  O   UNL     1      49.894  35.354  21.533  1.00  0.00    -0.289 OA
ATOM      7  H   UNL     1      49.357  35.496  22.352  1.00  0.00     0.246 HD
ENDBRANCH   3   6
ENDBRANCH   1   2
BRANCH   1   8
ATOM      8  C   UNL     1      54.566  35.536  20.532  1.00  0.00     0.233 C 
ATOM      9  N   UNL     1      55.530  36.551  20.252  1.00  0.00    -0.326 N 
ATOM     10  O   UNL     1      54.452  34.602  19.764  1.00  0.00    -0.274 OA
ATOM     11  H   UNL     1      55.608  37.323  20.930  1.00  0.00     0.169 HD
BRANCH   9  12
ATOM     12  C   UNL     1      56.427  36.595  19.077  1.00  0.00     0.042 A 
ATOM     13  C   UNL     1      57.295  37.687  18.840  1.00  0.00     0.048 A 
ATOM     14  C   UNL     1      56.443  35.576  18.085  1.00  0.00     0.028 A 
ATOM     15  C   UNL     1      58.124  37.732  17.710  1.00  0.00     0.061 A 
ATOM     16  C   UNL     1      57.274  35.633  16.956  1.00  0.00     0.024 A 
ATOM     17  C   UNL     1      58.125  36.717  16.765  1.00  0.00     0.059 A 
ATOM     18  Cl  UNL     1      59.190  39.083  17.458  1.00  0.00    -0.083 Cl
ATOM     19  Cl  UNL     1      59.152  36.784  15.371  1.00  0.00    -0.083 Cl
ENDBRANCH   9  12
ENDBRANCH   1   8
TORSDOF 4
