REMARK SMILES COc1cc2sc(CNC(=O)C3(CC(=O)O)Cc4cc(F)c(F)cc4C3)nc2cc1OCCC[N+](C)(CCO)CCO
REMARK SMILES IDX 31 1 30 2 3 3 4 4 5 5 29 6 6 7 28 8 7 9 27 10 2 11 1 12 8 13
REMARK SMILES IDX 9 14 10 15 11 16 12 18 17 19 26 20 18 21 25 22 19 23 24 24
REMARK SMILES IDX 20 25 22 26 21 27 23 28 13 29 14 30 15 31 16 32 32 34 33 35
REMARK SMILES IDX 34 36 35 37 36 38 37 39 38 40 39 41 40 43 41 44 42 45
REMARK H PARENT 9 17 16 33 39 42 42 46
ROOT
ATOM      1  O   UNL     1      63.881  37.964  21.573  1.00  0.00    -0.489 OA
ENDROOT
BRANCH   1   2
ATOM      2  C   UNL     1      62.640  37.408  21.745  1.00  0.00     0.163 A 
ATOM      3  C   UNL     1      62.603  36.214  22.514  1.00  0.00     0.162 A 
ATOM      4  C   UNL     1      61.408  35.577  22.756  1.00  0.00     0.071 A 
ATOM      5  C   UNL     1      60.238  36.122  22.227  1.00  0.00     0.059 A 
ATOM      6  C   UNL     1      61.467  37.946  21.231  1.00  0.00     0.080 A 
ATOM      7  S   UNL     1      58.609  35.541  22.381  1.00  0.00    -0.117 S 
ATOM      8  C   UNL     1      60.250  37.300  21.466  1.00  0.00     0.086 A 
ATOM      9  C   UNL     1      58.072  36.885  21.410  1.00  0.00     0.113 A 
ATOM     10  N   UNL     1      58.990  37.729  21.040  1.00  0.00    -0.239 NA
BRANCH   3  11
ATOM     11  O   UNL     1      63.814  35.770  22.978  1.00  0.00    -0.493 OA
ATOM     12  C   UNL     1      64.653  35.042  22.077  1.00  0.00     0.278 C 
ENDBRANCH   3  11
BRANCH   9  13
ATOM     13  C   UNL     1      56.635  36.938  20.984  1.00  0.00     0.183 C 
BRANCH  13  14
ATOM     14  N   UNL     1      55.729  36.412  21.987  1.00  0.00    -0.349 N 
ATOM     15  C   UNL     1      54.854  37.194  22.638  1.00  0.00     0.227 C 
ATOM     16  O   UNL     1      54.968  38.416  22.731  1.00  0.00    -0.274 OA
ATOM     17  H   UNL     1      55.758  35.406  22.207  1.00  0.00     0.163 HD
BRANCH  15  18
ATOM     18  C   UNL     1      53.727  36.484  23.376  1.00  0.00     0.068 C 
ATOM     19  C   UNL     1      54.403  35.959  24.660  1.00  0.00     0.053 C 
ATOM     20  C   UNL     1      52.693  37.443  24.011  1.00  0.00     0.053 C 
ATOM     21  C   UNL     1      54.524  37.227  25.471  1.00  0.00    -0.041 A 
ATOM     22  C   UNL     1      53.498  38.080  25.112  1.00  0.00    -0.041 A 
ATOM     23  C   UNL     1      55.441  37.610  26.442  1.00  0.00     0.046 A 
ATOM     24  C   UNL     1      53.347  39.319  25.716  1.00  0.00     0.046 A 
ATOM     25  C   UNL     1      55.286  38.852  27.036  1.00  0.00     0.159 A 
ATOM     26  C   UNL     1      54.255  39.692  26.683  1.00  0.00     0.159 A 
ATOM     27  F   UNL     1      56.149  39.250  28.002  1.00  0.00    -0.204 F 
ATOM     28  F   UNL     1      54.130  40.898  27.286  1.00  0.00    -0.204 F 
BRANCH  18  29
ATOM     29  C   UNL     1      53.003  35.455  22.486  1.00  0.00     0.140 C 
BRANCH  29  30
ATOM     30  C   UNL     1      51.858  35.977  21.627  1.00  0.00     0.304 C 
ATOM     31  O   UNL     1      50.826  35.277  21.561  1.00  0.00    -0.252 OA
BRANCH  30  32
ATOM     32  O   UNL     1      52.027  37.068  21.027  1.00  0.00    -0.481 OA
ATOM     33  H   UNL     1      51.305  37.438  20.460  1.00  0.00     0.296 HD
ENDBRANCH  30  32
ENDBRANCH  29  30
ENDBRANCH  18  29
ENDBRANCH  15  18
ENDBRANCH  13  14
ENDBRANCH   9  13
ENDBRANCH   1   2
BRANCH   1  34
ATOM     34  C   UNL     1      64.124  38.818  20.443  1.00  0.00     0.235 C 
BRANCH  34  35
ATOM     35  C   UNL     1      65.596  39.136  20.373  1.00  0.00     0.103 C 
BRANCH  35  36
ATOM     36  C   UNL     1      66.166  39.658  21.685  1.00  0.00     0.267 C 
BRANCH  36  37
ATOM     37  N   UNL     1      67.648  40.020  21.731  1.00  0.00    -0.322 N 
ATOM     38  C   UNL     1      67.933  41.045  20.663  1.00  0.00     0.334 C 
BRANCH  37  39
ATOM     39  C   UNL     1      67.912  40.631  23.107  1.00  0.00     0.292 C 
BRANCH  39  40
ATOM     40  C   UNL     1      69.354  40.753  23.554  1.00  0.00     0.217 C 
BRANCH  40  41
ATOM     41  O   UNL     1      70.025  41.719  22.767  1.00  0.00    -0.391 OA
ATOM     42  H   UNL     1      70.478  42.371  23.359  1.00  0.00     0.210 HD
ENDBRANCH  40  41
ENDBRANCH  39  40
ENDBRANCH  37  39
BRANCH  37  43
ATOM     43  C   UNL     1      68.518  38.799  21.457  1.00  0.00     0.292 C 
BRANCH  43  44
ATOM     44  C   UNL     1      68.375  37.634  22.416  1.00  0.00     0.217 C 
BRANCH  44  45
ATOM     45  O   UNL     1      69.474  36.756  22.272  1.00  0.00    -0.391 OA
ATOM     46  H   UNL     1      69.805  36.492  23.167  1.00  0.00     0.210 HD
ENDBRANCH  44  45
ENDBRANCH  43  44
ENDBRANCH  37  43
ENDBRANCH  36  37
ENDBRANCH  35  36
ENDBRANCH  34  35
ENDBRANCH   1  34
TORSDOF 18
