REMARK SMILES CC(C)C[C@H](C(=O)Nc1ccc(C(F)(F)F)cc1)P(=O)(O)O
REMARK SMILES IDX 6 1 8 2 7 3 9 5 10 6 11 7 18 8 12 9 17 10 13 11 14 12 15 13
REMARK SMILES IDX 16 14 5 15 4 16 2 17 1 18 3 19 19 20 20 21 22 22 21 24
REMARK H PARENT 8 4 22 23 21 25
ROOT
ATOM      1  C   UNL     1      54.747  36.995  22.303  1.00  0.00     0.239 C 
ATOM      2  N   UNL     1      55.972  36.254  22.490  1.00  0.00    -0.325 N 
ATOM      3  O   UNL     1      54.743  38.102  21.881  1.00  0.00    -0.274 OA
ATOM      4  H   UNL     1      55.921  35.301  22.878  1.00  0.00     0.169 HD
ENDROOT
BRANCH   2   5
ATOM      5  C   UNL     1      57.270  36.800  22.152  1.00  0.00     0.041 A 
ATOM      6  C   UNL     1      58.367  36.302  22.828  1.00  0.00     0.027 A 
ATOM      7  C   UNL     1      59.632  36.773  22.549  1.00  0.00     0.015 A 
ATOM      8  C   UNL     1      57.436  37.774  21.176  1.00  0.00     0.027 A 
ATOM      9  C   UNL     1      59.804  37.746  21.586  1.00  0.00     0.056 A 
ATOM     10  C   UNL     1      58.711  38.250  20.898  1.00  0.00     0.015 A 
BRANCH   9  11
ATOM     11  C   UNL     1      61.211  38.249  21.285  1.00  0.00     0.416 C 
ATOM     12  F   UNL     1      61.408  39.444  21.908  1.00  0.00    -0.166 F 
ATOM     13  F   UNL     1      61.367  38.406  19.940  1.00  0.00    -0.166 F 
ATOM     14  F   UNL     1      62.115  37.322  21.720  1.00  0.00    -0.166 F 
ENDBRANCH   9  11
ENDBRANCH   2   5
BRANCH   1  15
ATOM     15  C   UNL     1      53.441  36.330  22.707  1.00  0.00     0.194 C 
BRANCH  15  16
ATOM     16  C   UNL     1      52.627  37.409  23.405  1.00  0.00     0.029 C 
BRANCH  16  17
ATOM     17  C   UNL     1      52.852  37.327  24.915  1.00  0.00    -0.016 C 
ATOM     18  C   UNL     1      52.439  38.671  25.509  1.00  0.00     0.007 C 
ATOM     19  C   UNL     1      54.305  37.051  25.302  1.00  0.00     0.007 C 
ENDBRANCH  16  17
ENDBRANCH  15  16
BRANCH  15  20
ATOM     20  P   UNL     1      52.554  35.671  21.228  1.00  0.00     0.337 P 
ATOM     21  O   UNL     1      52.231  36.694  20.252  1.00  0.00    -0.260 OA
BRANCH  20  22
ATOM     22  O   UNL     1      51.292  35.009  21.554  1.00  0.00    -0.324 OA
ATOM     23  H   UNL     1      51.191  34.956  22.537  1.00  0.00     0.221 HD
ENDBRANCH  20  22
BRANCH  20  24
ATOM     24  O   UNL     1      53.318  34.675  20.482  1.00  0.00    -0.324 OA
ATOM     25  H   UNL     1      53.781  34.072  21.116  1.00  0.00     0.221 HD
ENDBRANCH  20  24
ENDBRANCH  15  20
ENDBRANCH   1  15
TORSDOF 8
