REMARK SMILES CC(=O)c1ccc(NC(=O)[C@@H](NC(=O)[C@@H](CC(C)C)P(=O)(O)O)C(C)C)cc1
REMARK SMILES IDX 13 1 12 2 14 3 11 5 9 6 8 7 10 8 7 10 4 11 5 12 28 13 6 14
REMARK SMILES IDX 27 15 2 16 3 17 1 18 24 19 25 20 26 21 15 22 16 23 17 24
REMARK SMILES IDX 18 25 19 26 20 27 21 28 23 29 22 31
REMARK H PARENT 12 4 8 9 23 30 22 32
ROOT
ATOM      1  C   UNL     1      54.204  37.135  21.226  1.00  0.00     0.235 C 
ATOM      2  N   UNL     1      55.467  36.544  20.894  1.00  0.00    -0.343 N 
ATOM      3  O   UNL     1      54.047  38.312  21.105  1.00  0.00    -0.274 OA
ATOM      4  H   UNL     1      55.635  35.542  21.061  1.00  0.00     0.164 HD
ENDROOT
BRANCH   2   5
ATOM      5  C   UNL     1      56.520  37.391  20.311  1.00  0.00     0.174 C 
BRANCH   5   6
ATOM      6  C   UNL     1      56.897  36.660  19.011  1.00  0.00     0.247 C 
ATOM      7  N   UNL     1      55.959  35.664  18.523  1.00  0.00    -0.324 N 
ATOM      8  O   UNL     1      57.906  36.900  18.443  1.00  0.00    -0.272 OA
ATOM      9  H   UNL     1      55.089  35.518  19.054  1.00  0.00     0.170 HD
BRANCH   7  10
ATOM     10  C   UNL     1      56.172  34.864  17.336  1.00  0.00     0.041 A 
ATOM     11  C   UNL     1      56.531  33.215  15.140  1.00  0.00     0.017 A 
ATOM     12  C   UNL     1      57.185  34.441  15.206  1.00  0.00     0.014 A 
ATOM     13  C   UNL     1      55.696  32.813  16.172  1.00  0.00     0.014 A 
ATOM     14  C   UNL     1      57.013  35.268  16.307  1.00  0.00     0.027 A 
ATOM     15  C   UNL     1      55.521  33.638  17.272  1.00  0.00     0.027 A 
BRANCH  11  16
ATOM     16  C   UNL     1      56.743  32.310  13.931  1.00  0.00     0.159 C 
ATOM     17  O   UNL     1      56.742  31.133  14.064  1.00  0.00    -0.295 OA
ATOM     18  C   UNL     1      57.000  32.911  12.561  1.00  0.00     0.093 C 
ENDBRANCH  11  16
ENDBRANCH   7  10
ENDBRANCH   5   6
BRANCH   5  19
ATOM     19  C   UNL     1      57.698  37.576  21.252  1.00  0.00     0.015 C 
ATOM     20  C   UNL     1      57.522  38.911  21.986  1.00  0.00     0.010 C 
ATOM     21  C   UNL     1      57.858  36.435  22.251  1.00  0.00     0.010 C 
ENDBRANCH   5  19
ENDBRANCH   2   5
BRANCH   1  22
ATOM     22  C   UNL     1      53.116  36.228  21.791  1.00  0.00     0.193 C 
BRANCH  22  23
ATOM     23  C   UNL     1      52.247  36.995  22.785  1.00  0.00     0.029 C 
BRANCH  23  24
ATOM     24  C   UNL     1      53.055  37.519  23.969  1.00  0.00    -0.016 C 
ATOM     25  C   UNL     1      52.092  38.329  24.833  1.00  0.00     0.007 C 
ATOM     26  C   UNL     1      53.843  36.436  24.720  1.00  0.00     0.007 C 
ENDBRANCH  23  24
ENDBRANCH  22  23
BRANCH  22  27
ATOM     27  P   UNL     1      52.122  35.478  20.393  1.00  0.00     0.337 P 
ATOM     28  O   UNL     1      51.734  34.116  20.971  1.00  0.00    -0.260 OA
BRANCH  27  29
ATOM     29  O   UNL     1      50.838  36.167  19.903  1.00  0.00    -0.324 OA
ATOM     30  H   UNL     1      50.300  36.456  20.683  1.00  0.00     0.221 HD
ENDBRANCH  27  29
BRANCH  27  31
ATOM     31  O   UNL     1      53.015  35.186  19.201  1.00  0.00    -0.324 OA
ATOM     32  H   UNL     1      53.906  34.895  19.520  1.00  0.00     0.221 HD
ENDBRANCH  27  31
ENDBRANCH  22  27
ENDBRANCH   1  22
TORSDOF 11
