REMARK SMILES CC(C)C[C@H](C(=O)N[C@H](C(=O)Nc1ccc(Cl)c(Cl)c1)C(C)C)P(=O)(O)O
REMARK SMILES IDX 6 1 8 2 7 3 9 5 10 6 12 7 11 8 13 10 20 11 14 12 18 13 15 14
REMARK SMILES IDX 16 15 19 16 17 17 21 18 22 19 23 20 5 21 4 22 2 23 1 24 3 25
REMARK SMILES IDX 24 26 25 27 27 28 26 30
REMARK H PARENT 8 4 12 9 27 29 26 31
ROOT
ATOM      1  C   UNL     1      54.738  37.152  22.177  1.00  0.00     0.235 C 
ATOM      2  N   UNL     1      55.853  36.264  21.953  1.00  0.00    -0.343 N 
ATOM      3  O   UNL     1      54.780  38.346  22.029  1.00  0.00    -0.274 OA
ATOM      4  H   UNL     1      55.718  35.246  22.029  1.00  0.00     0.164 HD
ENDROOT
BRANCH   2   5
ATOM      5  C   UNL     1      57.144  36.785  21.626  1.00  0.00     0.174 C 
BRANCH   5   6
ATOM      6  C   UNL     1      57.625  36.572  20.229  1.00  0.00     0.247 C 
ATOM      7  N   UNL     1      58.105  37.765  19.588  1.00  0.00    -0.324 N 
ATOM      8  O   UNL     1      57.636  35.469  19.795  1.00  0.00    -0.272 OA
ATOM      9  H   UNL     1      58.052  38.649  20.114  1.00  0.00     0.170 HD
BRANCH   7  10
ATOM     10  C   UNL     1      58.657  37.806  18.254  1.00  0.00     0.042 A 
ATOM     11  C   UNL     1      58.817  36.677  17.475  1.00  0.00     0.048 A 
ATOM     12  C   UNL     1      59.069  39.046  17.806  1.00  0.00     0.028 A 
ATOM     13  C   UNL     1      59.369  36.825  16.212  1.00  0.00     0.061 A 
ATOM     14  C   UNL     1      59.622  39.191  16.559  1.00  0.00     0.024 A 
ATOM     15  C   UNL     1      59.767  38.085  15.761  1.00  0.00     0.059 A 
ATOM     16  Cl  UNL     1      59.553  35.376  15.188  1.00  0.00    -0.083 Cl
ATOM     17  Cl  UNL     1      60.494  38.387  14.165  1.00  0.00    -0.083 Cl
ENDBRANCH   7  10
ENDBRANCH   5   6
BRANCH   5  18
ATOM     18  C   UNL     1      58.219  36.288  22.616  1.00  0.00     0.015 C 
ATOM     19  C   UNL     1      57.948  36.525  24.108  1.00  0.00     0.010 C 
ATOM     20  C   UNL     1      59.649  36.737  22.279  1.00  0.00     0.010 C 
ENDBRANCH   5  18
ENDBRANCH   2   5
BRANCH   1  21
ATOM     21  C   UNL     1      53.480  36.429  22.615  1.00  0.00     0.193 C 
BRANCH  21  22
ATOM     22  C   UNL     1      52.732  37.291  23.630  1.00  0.00     0.029 C 
BRANCH  22  23
ATOM     23  C   UNL     1      53.548  37.617  24.893  1.00  0.00    -0.016 C 
ATOM     24  C   UNL     1      52.746  38.593  25.754  1.00  0.00     0.007 C 
ATOM     25  C   UNL     1      53.946  36.373  25.684  1.00  0.00     0.007 C 
ENDBRANCH  22  23
ENDBRANCH  21  22
BRANCH  21  26
ATOM     26  P   UNL     1      52.524  35.935  21.136  1.00  0.00     0.337 P 
ATOM     27  O   UNL     1      51.279  35.215  21.575  1.00  0.00    -0.260 OA
BRANCH  26  28
ATOM     28  O   UNL     1      52.293  37.158  20.313  1.00  0.00    -0.324 OA
ATOM     29  H   UNL     1      52.146  37.934  20.910  1.00  0.00     0.221 HD
ENDBRANCH  26  28
BRANCH  26  30
ATOM     30  O   UNL     1      53.434  35.063  20.303  1.00  0.00    -0.324 OA
ATOM     31  H   UNL     1      54.004  34.516  20.900  1.00  0.00     0.221 HD
ENDBRANCH  26  30
ENDBRANCH  21  26
ENDBRANCH   1  21
TORSDOF 10
