REMARK SMILES CC(C)C[C@H](C(=O)N[C@@H](Cc1ccccn1)C(=O)Nc1ccc(Cl)c(Cl)c1)P(=O)(O)O
REMARK SMILES IDX 8 1 6 2 7 3 9 5 17 6 19 7 18 8 20 10 27 11 21 12 25 13 22 14
REMARK SMILES IDX 23 15 26 16 24 17 10 18 11 19 12 20 16 21 13 22 15 23 14 24
REMARK SMILES IDX 5 25 4 26 2 27 1 28 3 29 28 30 29 31 31 32 30 34
REMARK H PARENT 8 4 19 9 31 33 30 35
ROOT
ATOM      1  N   UNL     1      55.874  36.363  21.702  1.00  0.00    -0.343 N 
ATOM      2  C   UNL     1      54.760  37.215  21.961  1.00  0.00     0.235 C 
ATOM      3  O   UNL     1      54.853  38.428  21.813  1.00  0.00    -0.274 OA
ATOM      4  H   UNL     1      55.799  35.340  21.799  1.00  0.00     0.164 HD
ENDROOT
BRANCH   1   5
ATOM      5  C   UNL     1      57.104  36.986  21.300  1.00  0.00     0.177 C 
BRANCH   5   6
ATOM      6  C   UNL     1      57.348  36.974  19.825  1.00  0.00     0.247 C 
ATOM      7  N   UNL     1      58.019  38.129  19.369  1.00  0.00    -0.324 N 
ATOM      8  O   UNL     1      57.022  36.115  19.066  1.00  0.00    -0.272 OA
ATOM      9  H   UNL     1      58.099  38.912  20.033  1.00  0.00     0.170 HD
BRANCH   7  10
ATOM     10  C   UNL     1      58.596  38.317  18.081  1.00  0.00     0.042 A 
ATOM     11  C   UNL     1      58.631  37.305  17.152  1.00  0.00     0.048 A 
ATOM     12  C   UNL     1      59.298  39.483  17.901  1.00  0.00     0.028 A 
ATOM     13  C   UNL     1      59.292  37.531  15.948  1.00  0.00     0.061 A 
ATOM     14  C   UNL     1      59.913  39.701  16.681  1.00  0.00     0.024 A 
ATOM     15  C   UNL     1      59.898  38.724  15.734  1.00  0.00     0.059 A 
ATOM     16  Cl  UNL     1      59.270  36.269  14.748  1.00  0.00    -0.083 Cl
ATOM     17  Cl  UNL     1      60.702  39.009  14.193  1.00  0.00    -0.083 Cl
ENDBRANCH   7  10
ENDBRANCH   5   6
BRANCH   5  18
ATOM     18  C   UNL     1      58.222  36.076  21.957  1.00  0.00     0.091 C 
BRANCH  18  19
ATOM     19  C   UNL     1      59.602  36.436  21.473  1.00  0.00     0.043 A 
ATOM     20  C   UNL     1      60.328  37.354  22.185  1.00  0.00     0.024 A 
ATOM     21  N   UNL     1      60.058  35.897  20.362  1.00  0.00    -0.261 NA
ATOM     22  C   UNL     1      61.605  37.738  21.716  1.00  0.00     0.003 A 
ATOM     23  C   UNL     1      61.251  36.230  19.895  1.00  0.00     0.111 A 
ATOM     24  C   UNL     1      62.051  37.148  20.550  1.00  0.00     0.020 A 
ENDBRANCH  18  19
ENDBRANCH   5  18
ENDBRANCH   1   5
BRANCH   2  25
ATOM     25  C   UNL     1      53.507  36.471  22.445  1.00  0.00     0.193 C 
BRANCH  25  26
ATOM     26  C   UNL     1      52.791  37.378  23.399  1.00  0.00     0.029 C 
BRANCH  26  27
ATOM     27  C   UNL     1      53.641  37.834  24.597  1.00  0.00    -0.016 C 
ATOM     28  C   UNL     1      52.829  38.821  25.450  1.00  0.00     0.007 C 
ATOM     29  C   UNL     1      54.150  36.676  25.467  1.00  0.00     0.007 C 
ENDBRANCH  26  27
ENDBRANCH  25  26
BRANCH  25  30
ATOM     30  P   UNL     1      52.471  35.847  21.127  1.00  0.00     0.337 P 
ATOM     31  O   UNL     1      51.198  35.352  21.692  1.00  0.00    -0.260 OA
BRANCH  30  32
ATOM     32  O   UNL     1      52.255  36.915  20.132  1.00  0.00    -0.324 OA
ATOM     33  H   UNL     1      52.082  37.771  20.599  1.00  0.00     0.221 HD
ENDBRANCH  30  32
BRANCH  30  34
ATOM     34  O   UNL     1      53.265  34.923  20.204  1.00  0.00    -0.324 OA
ATOM     35  H   UNL     1      53.804  34.296  20.749  1.00  0.00     0.221 HD
ENDBRANCH  30  34
ENDBRANCH  25  30
ENDBRANCH   2  25
TORSDOF 11
