REMARK SMILES CC(C)C[C@@H](C(=O)N[C@@H](Cc1ccccn1)C(=O)Nc1ccc(Cl)c(Cl)c1)P(=O)(O)O
REMARK SMILES IDX 8 1 6 2 7 3 9 5 17 6 19 7 18 8 20 10 27 11 21 12 25 13 22 14
REMARK SMILES IDX 23 15 26 16 24 17 10 18 11 19 12 20 16 21 13 22 15 23 14 24
REMARK SMILES IDX 5 25 4 26 2 27 1 28 3 29 28 30 29 31 31 32 30 34
REMARK H PARENT 8 4 19 9 31 33 30 35
ROOT
ATOM      1  N   UNL     1      54.869  36.510  20.875  1.00  0.00    -0.343 N 
ATOM      2  C   UNL     1      53.523  37.012  21.063  1.00  0.00     0.235 C 
ATOM      3  O   UNL     1      53.304  38.168  20.916  1.00  0.00    -0.274 OA
ATOM      4  H   UNL     1      55.052  35.508  21.025  1.00  0.00     0.164 HD
ENDROOT
BRANCH   1   5
ATOM      5  C   UNL     1      55.968  37.373  20.482  1.00  0.00     0.177 C 
BRANCH   5   6
ATOM      6  C   UNL     1      56.479  36.848  19.145  1.00  0.00     0.247 C 
ATOM      7  N   UNL     1      55.731  35.780  18.503  1.00  0.00    -0.324 N 
ATOM      8  O   UNL     1      57.458  37.298  18.654  1.00  0.00    -0.272 OA
ATOM      9  H   UNL     1      54.878  35.433  18.964  1.00  0.00     0.170 HD
BRANCH   7  10
ATOM     10  C   UNL     1      56.130  35.180  17.244  1.00  0.00     0.042 A 
ATOM     11  C   UNL     1      55.905  33.820  17.094  1.00  0.00     0.048 A 
ATOM     12  C   UNL     1      56.720  35.910  16.220  1.00  0.00     0.028 A 
ATOM     13  C   UNL     1      56.260  33.181  15.917  1.00  0.00     0.061 A 
ATOM     14  C   UNL     1      57.073  35.265  15.040  1.00  0.00     0.024 A 
ATOM     15  C   UNL     1      56.849  33.901  14.888  1.00  0.00     0.059 A 
ATOM     16  Cl  UNL     1      55.960  31.430  15.746  1.00  0.00    -0.083 Cl
ATOM     17  Cl  UNL     1      57.317  33.075  13.371  1.00  0.00    -0.083 Cl
ENDBRANCH   7  10
ENDBRANCH   5   6
BRANCH   5  18
ATOM     18  C   UNL     1      57.050  37.252  21.537  1.00  0.00     0.091 C 
BRANCH  18  19
ATOM     19  C   UNL     1      56.471  37.456  22.940  1.00  0.00     0.043 A 
ATOM     20  C   UNL     1      55.718  38.591  23.223  1.00  0.00     0.024 A 
ATOM     21  N   UNL     1      56.694  36.549  23.876  1.00  0.00    -0.261 NA
ATOM     22  C   UNL     1      55.199  38.779  24.501  1.00  0.00     0.003 A 
ATOM     23  C   UNL     1      56.212  36.692  25.101  1.00  0.00     0.111 A 
ATOM     24  C   UNL     1      55.454  37.801  25.458  1.00  0.00     0.020 A 
ENDBRANCH  18  19
ENDBRANCH   5  18
ENDBRANCH   1   5
BRANCH   2  25
ATOM     25  C   UNL     1      52.406  36.043  21.448  1.00  0.00     0.193 C 
BRANCH  25  26
ATOM     26  C   UNL     1      52.909  34.884  22.286  1.00  0.00     0.029 C 
BRANCH  26  27
ATOM     27  C   UNL     1      52.735  35.098  23.779  1.00  0.00    -0.016 C 
ATOM     28  C   UNL     1      53.875  34.395  24.513  1.00  0.00     0.007 C 
ATOM     29  C   UNL     1      52.667  36.548  24.233  1.00  0.00     0.007 C 
ENDBRANCH  26  27
ENDBRANCH  25  26
BRANCH  25  30
ATOM     30  P   UNL     1      51.651  35.389  19.879  1.00  0.00     0.337 P 
ATOM     31  O   UNL     1      52.699  34.593  19.148  1.00  0.00    -0.260 OA
BRANCH  30  32
ATOM     32  O   UNL     1      50.486  34.483  20.165  1.00  0.00    -0.324 OA
ATOM     33  H   UNL     1      50.370  34.393  21.144  1.00  0.00     0.221 HD
ENDBRANCH  30  32
BRANCH  30  34
ATOM     34  O   UNL     1      51.212  36.530  19.000  1.00  0.00    -0.324 OA
ATOM     35  H   UNL     1      50.920  37.289  19.565  1.00  0.00     0.221 HD
ENDBRANCH  30  34
ENDBRANCH  25  30
ENDBRANCH   2  25
TORSDOF 11
