REMARK SMILES CC(C)C[C@H](C(=O)N[C@H](C(=O)Nc1ccc(C(=O)C(F)(F)F)cc1)C(C)C)P(=O)(O)O
REMARK SMILES IDX 9 1 8 2 6 3 7 4 5 6 4 7 2 8 1 9 3 10 28 11 29 12 30 13 31 15
REMARK SMILES IDX 10 17 12 18 11 19 13 21 14 22 24 23 15 24 23 25 16 26 17 27
REMARK SMILES IDX 18 28 19 29 20 30 21 31 22 32 25 33 26 34 27 35
REMARK H PARENT 8 5 30 14 31 16 12 20
ROOT
ATOM      1  C   UNL     1      56.963  37.500  21.667  1.00  0.00     0.174 C 
ENDROOT
BRANCH   1   2
ATOM      2  N   UNL     1      55.817  36.760  21.992  1.00  0.00    -0.343 N 
ATOM      3  C   UNL     1      54.633  37.493  22.169  1.00  0.00     0.235 C 
ATOM      4  O   UNL     1      54.628  38.645  21.953  1.00  0.00    -0.274 OA
ATOM      5  H   UNL     1      55.843  35.735  22.095  1.00  0.00     0.164 HD
BRANCH   3   6
ATOM      6  C   UNL     1      53.435  36.696  22.662  1.00  0.00     0.193 C 
BRANCH   6   7
ATOM      7  C   UNL     1      52.675  37.549  23.646  1.00  0.00     0.029 C 
BRANCH   7   8
ATOM      8  C   UNL     1      53.494  38.024  24.845  1.00  0.00    -0.016 C 
ATOM      9  C   UNL     1      54.110  36.895  25.664  1.00  0.00     0.007 C 
ATOM     10  C   UNL     1      52.658  38.957  25.699  1.00  0.00     0.007 C 
ENDBRANCH   7   8
ENDBRANCH   6   7
BRANCH   6  11
ATOM     11  P   UNL     1      52.458  35.932  21.377  1.00  0.00     0.337 P 
ATOM     12  O   UNL     1      53.289  34.927  20.611  1.00  0.00    -0.260 OA
BRANCH  11  13
ATOM     13  O   UNL     1      52.078  37.004  20.438  1.00  0.00    -0.324 OA
ATOM     14  H   UNL     1      51.794  37.804  20.948  1.00  0.00     0.221 HD
ENDBRANCH  11  13
BRANCH  11  15
ATOM     15  O   UNL     1      51.192  35.380  22.014  1.00  0.00    -0.324 OA
ATOM     16  H   UNL     1      51.276  35.416  23.000  1.00  0.00     0.221 HD
ENDBRANCH  11  15
ENDBRANCH   6  11
ENDBRANCH   3   6
ENDBRANCH   1   2
BRANCH   1  17
ATOM     17  C   UNL     1      57.335  37.599  20.228  1.00  0.00     0.247 C 
ATOM     18  N   UNL     1      58.110  38.754  19.961  1.00  0.00    -0.324 N 
ATOM     19  O   UNL     1      57.011  36.792  19.456  1.00  0.00    -0.272 OA
ATOM     20  H   UNL     1      58.190  39.484  20.683  1.00  0.00     0.170 HD
BRANCH  18  21
ATOM     21  C   UNL     1      58.795  38.932  18.691  1.00  0.00     0.041 A 
ATOM     22  C   UNL     1      58.561  38.252  17.515  1.00  0.00     0.027 A 
ATOM     23  C   UNL     1      59.983  39.646  18.843  1.00  0.00     0.027 A 
ATOM     24  C   UNL     1      59.381  38.506  16.405  1.00  0.00     0.014 A 
ATOM     25  C   UNL     1      60.817  39.870  17.770  1.00  0.00     0.014 A 
ATOM     26  C   UNL     1      60.485  39.328  16.547  1.00  0.00     0.027 A 
BRANCH  26  27
ATOM     27  C   UNL     1      61.565  39.619  15.538  1.00  0.00     0.266 C 
ATOM     28  O   UNL     1      61.903  40.732  15.228  1.00  0.00    -0.284 OA
BRANCH  27  29
ATOM     29  C   UNL     1      62.510  38.431  15.371  1.00  0.00     0.454 C 
ATOM     30  F   UNL     1      61.988  37.194  15.375  1.00  0.00    -0.163 F 
ATOM     31  F   UNL     1      63.261  38.540  16.472  1.00  0.00    -0.163 F 
ATOM     32  F   UNL     1      63.276  38.540  14.303  1.00  0.00    -0.163 F 
ENDBRANCH  27  29
ENDBRANCH  26  27
ENDBRANCH  18  21
ENDBRANCH   1  17
BRANCH   1  33
ATOM     33  C   UNL     1      58.145  36.631  22.317  1.00  0.00     0.015 C 
ATOM     34  C   UNL     1      59.532  37.163  21.975  1.00  0.00     0.010 C 
ATOM     35  C   UNL     1      58.035  36.457  23.833  1.00  0.00     0.010 C 
ENDBRANCH   1  33
TORSDOF 12
