REMARK SMILES CC(C)C[C@H](C(=O)Nc1ccc(-c2ccc(Cl)cc2)cc1)P(=O)(O)O
REMARK SMILES IDX 8 1 6 2 7 3 9 5 10 6 11 7 12 8 21 9 20 10 13 11 19 12 14 13
REMARK SMILES IDX 18 14 15 15 16 16 17 17 5 18 4 19 2 20 1 21 3 22 22 23 23 24
REMARK SMILES IDX 24 25 25 27
REMARK H PARENT 8 4 24 26 25 28
ROOT
ATOM      1  N   UNL     1      55.839  36.544  22.174  1.00  0.00    -0.325 N 
ATOM      2  C   UNL     1      54.673  37.312  22.196  1.00  0.00     0.239 C 
ATOM      3  O   UNL     1      54.614  38.481  21.888  1.00  0.00    -0.274 OA
ATOM      4  H   UNL     1      55.761  35.536  22.369  1.00  0.00     0.169 HD
ENDROOT
BRANCH   1   5
ATOM      5  C   UNL     1      57.156  37.087  21.892  1.00  0.00     0.041 A 
ATOM      6  C   UNL     1      57.391  38.201  21.093  1.00  0.00     0.027 A 
ATOM      7  C   UNL     1      58.693  38.694  20.940  1.00  0.00     0.011 A 
ATOM      8  C   UNL     1      59.745  38.073  21.599  1.00  0.00    -0.018 A 
ATOM      9  C   UNL     1      58.193  36.500  22.625  1.00  0.00     0.027 A 
ATOM     10  C   UNL     1      59.495  36.991  22.452  1.00  0.00     0.011 A 
BRANCH   8  11
ATOM     11  C   UNL     1      61.170  38.632  21.460  1.00  0.00    -0.018 A 
ATOM     12  C   UNL     1      62.245  37.781  21.484  1.00  0.00     0.010 A 
ATOM     13  C   UNL     1      61.345  40.005  21.375  1.00  0.00     0.010 A 
ATOM     14  C   UNL     1      63.534  38.284  21.385  1.00  0.00     0.021 A 
ATOM     15  C   UNL     1      62.634  40.525  21.286  1.00  0.00     0.021 A 
ATOM     16  C   UNL     1      63.706  39.647  21.292  1.00  0.00     0.041 A 
ATOM     17  Cl  UNL     1      65.362  40.309  21.208  1.00  0.00    -0.084 Cl
ENDBRANCH   8  11
ENDBRANCH   1   5
BRANCH   2  18
ATOM     18  C   UNL     1      53.487  36.516  22.663  1.00  0.00     0.194 C 
BRANCH  18  19
ATOM     19  C   UNL     1      52.656  37.405  23.610  1.00  0.00     0.029 C 
BRANCH  19  20
ATOM     20  C   UNL     1      53.452  37.976  24.776  1.00  0.00    -0.016 C 
ATOM     21  C   UNL     1      54.061  36.893  25.689  1.00  0.00     0.007 C 
ATOM     22  C   UNL     1      52.575  38.927  25.624  1.00  0.00     0.007 C 
ENDBRANCH  19  20
ENDBRANCH  18  19
BRANCH  18  23
ATOM     23  P   UNL     1      52.498  35.869  21.289  1.00  0.00     0.337 P 
ATOM     24  O   UNL     1      51.962  37.069  20.477  1.00  0.00    -0.260 OA
BRANCH  23  25
ATOM     25  O   UNL     1      53.417  35.065  20.421  1.00  0.00    -0.324 OA
ATOM     26  H   UNL     1      54.026  34.532  20.991  1.00  0.00     0.221 HD
ENDBRANCH  23  25
BRANCH  23  27
ATOM     27  O   UNL     1      51.339  35.097  21.880  1.00  0.00    -0.324 OA
ATOM     28  H   UNL     1      51.390  35.131  22.868  1.00  0.00     0.221 HD
ENDBRANCH  23  27
ENDBRANCH  18  23
ENDBRANCH   2  18
TORSDOF 8
