REMARK SMILES CC(C)C[C@H](C(=O)Nc1ccc(NS(=O)(=O)c2ccc(Cl)c(Cl)c2)cc1)P(=O)(O)O
REMARK SMILES IDX 9 1 11 2 25 3 10 4 26 5 12 6 8 7 6 8 7 9 5 11 4 12 2 13 1 14
REMARK SMILES IDX 3 15 27 16 28 17 29 18 30 20 13 22 14 24 16 25 15 26 17 27
REMARK SMILES IDX 18 28 24 29 19 30 22 31 20 32 23 33 21 34
REMARK H PARENT 8 10 29 19 30 21 13 23
ROOT
ATOM      1  C   UNL     1      57.115  37.177  21.781  1.00  0.00     0.041 A 
ATOM      2  C   UNL     1      59.521  37.031  21.872  1.00  0.00     0.029 A 
ATOM      3  C   UNL     1      58.447  38.601  20.394  1.00  0.00     0.029 A 
ATOM      4  C   UNL     1      58.259  36.599  22.299  1.00  0.00     0.028 A 
ATOM      5  C   UNL     1      57.198  38.164  20.825  1.00  0.00     0.028 A 
ATOM      6  C   UNL     1      59.607  38.042  20.920  1.00  0.00     0.049 A 
ENDROOT
BRANCH   1   7
ATOM      7  N   UNL     1      55.838  36.663  22.241  1.00  0.00    -0.325 N 
ATOM      8  C   UNL     1      54.619  37.406  22.222  1.00  0.00     0.239 C 
ATOM      9  O   UNL     1      54.519  38.560  21.865  1.00  0.00    -0.274 OA
ATOM     10  H   UNL     1      55.809  35.700  22.605  1.00  0.00     0.169 HD
BRANCH   8  11
ATOM     11  C   UNL     1      53.439  36.616  22.787  1.00  0.00     0.194 C 
BRANCH  11  12
ATOM     12  C   UNL     1      52.663  37.491  23.748  1.00  0.00     0.029 C 
BRANCH  12  13
ATOM     13  C   UNL     1      53.448  38.094  24.891  1.00  0.00    -0.016 C 
ATOM     14  C   UNL     1      54.057  36.951  25.704  1.00  0.00     0.007 C 
ATOM     15  C   UNL     1      52.579  38.972  25.778  1.00  0.00     0.007 C 
ENDBRANCH  12  13
ENDBRANCH  11  12
BRANCH  11  16
ATOM     16  P   UNL     1      52.432  36.019  21.355  1.00  0.00     0.337 P 
ATOM     17  O   UNL     1      51.883  37.150  20.513  1.00  0.00    -0.260 OA
BRANCH  16  18
ATOM     18  O   UNL     1      53.366  35.060  20.584  1.00  0.00    -0.324 OA
ATOM     19  H   UNL     1      53.891  34.521  21.228  1.00  0.00     0.221 HD
ENDBRANCH  16  18
BRANCH  16  20
ATOM     20  O   UNL     1      51.250  35.239  21.889  1.00  0.00    -0.324 OA
ATOM     21  H   UNL     1      51.267  35.250  22.879  1.00  0.00     0.221 HD
ENDBRANCH  16  20
ENDBRANCH  11  16
ENDBRANCH   8  11
ENDBRANCH   1   7
BRANCH   6  22
ATOM     22  N   UNL     1      60.887  38.529  20.423  1.00  0.00    -0.280 N 
ATOM     23  H   UNL     1      60.887  39.096  19.563  1.00  0.00     0.180 HD
BRANCH  22  24
ATOM     24  S   UNL     1      62.384  38.218  21.176  1.00  0.00     0.261 S 
ATOM     25  O   UNL     1      62.501  36.873  21.758  1.00  0.00    -0.201 OA
ATOM     26  O   UNL     1      63.520  38.290  20.246  1.00  0.00    -0.201 OA
BRANCH  24  27
ATOM     27  C   UNL     1      62.472  39.489  22.453  1.00  0.00     0.089 A 
ATOM     28  C   UNL     1      62.304  40.804  22.073  1.00  0.00     0.024 A 
ATOM     29  C   UNL     1      62.665  39.133  23.774  1.00  0.00     0.044 A 
ATOM     30  C   UNL     1      62.349  41.791  23.031  1.00  0.00     0.023 A 
ATOM     31  C   UNL     1      62.707  40.119  24.740  1.00  0.00     0.061 A 
ATOM     32  C   UNL     1      62.545  41.452  24.358  1.00  0.00     0.059 A 
ATOM     33  Cl  UNL     1      62.965  39.615  26.437  1.00  0.00    -0.083 Cl
ATOM     34  Cl  UNL     1      62.583  42.797  25.522  1.00  0.00    -0.083 Cl
ENDBRANCH  24  27
ENDBRANCH  22  24
ENDBRANCH   6  22
TORSDOF 10
