REMARK SMILES CC(C)C[C@H](C(=O)Nc1cnc(-c2ccc(OC(C)C)cc2)nc1)P(=O)(O)O
REMARK SMILES IDX 9 1 10 2 24 3 12 4 11 5 23 6 8 7 6 8 7 9 5 11 4 12 2 13 1 14
REMARK SMILES IDX 3 15 25 16 26 17 28 18 27 20 13 22 14 23 22 24 15 25 21 26
REMARK SMILES IDX 16 27 17 28 18 29 19 30 20 31
REMARK H PARENT 8 10 28 19 27 21
ROOT
ATOM      1  C   UNL     1      57.209  36.847  21.984  1.00  0.00     0.078 A 
ATOM      2  C   UNL     1      57.520  37.895  21.136  1.00  0.00     0.141 A 
ATOM      3  C   UNL     1      58.206  36.221  22.674  1.00  0.00     0.141 A 
ATOM      4  C   UNL     1      59.771  37.565  21.673  1.00  0.00     0.159 A 
ATOM      5  N   UNL     1      58.818  38.215  20.993  1.00  0.00    -0.234 NA
ATOM      6  N   UNL     1      59.479  36.579  22.454  1.00  0.00    -0.234 NA
ENDROOT
BRANCH   1   7
ATOM      7  N   UNL     1      55.860  36.405  22.274  1.00  0.00    -0.323 N 
ATOM      8  C   UNL     1      54.732  37.239  22.232  1.00  0.00     0.239 C 
ATOM      9  O   UNL     1      54.766  38.409  21.902  1.00  0.00    -0.274 OA
ATOM     10  H   UNL     1      55.720  35.416  22.527  1.00  0.00     0.170 HD
BRANCH   8  11
ATOM     11  C   UNL     1      53.538  36.485  22.710  1.00  0.00     0.194 C 
BRANCH  11  12
ATOM     12  C   UNL     1      52.800  37.433  23.672  1.00  0.00     0.029 C 
BRANCH  12  13
ATOM     13  C   UNL     1      53.560  38.013  24.873  1.00  0.00    -0.016 C 
ATOM     14  C   UNL     1      52.620  38.950  25.650  1.00  0.00     0.007 C 
ATOM     15  C   UNL     1      54.160  36.890  25.712  1.00  0.00     0.007 C 
ENDBRANCH  12  13
ENDBRANCH  11  12
BRANCH  11  16
ATOM     16  P   UNL     1      52.533  35.907  21.324  1.00  0.00     0.337 P 
ATOM     17  O   UNL     1      53.471  35.058  20.443  1.00  0.00    -0.260 OA
BRANCH  16  18
ATOM     18  O   UNL     1      52.022  37.159  20.552  1.00  0.00    -0.324 OA
ATOM     19  H   UNL     1      51.739  37.853  21.199  1.00  0.00     0.221 HD
ENDBRANCH  16  18
BRANCH  16  20
ATOM     20  O   UNL     1      51.384  35.162  21.906  1.00  0.00    -0.324 OA
ATOM     21  H   UNL     1      51.436  35.195  22.894  1.00  0.00     0.221 HD
ENDBRANCH  16  20
ENDBRANCH  11  16
ENDBRANCH   8  11
ENDBRANCH   1   7
BRANCH   4  22
ATOM     22  C   UNL     1      61.266  37.924  21.601  1.00  0.00     0.019 A 
ATOM     23  C   UNL     1      62.292  37.004  21.714  1.00  0.00     0.016 A 
ATOM     24  C   UNL     1      61.597  39.272  21.540  1.00  0.00     0.016 A 
ATOM     25  C   UNL     1      63.623  37.419  21.657  1.00  0.00     0.047 A 
ATOM     26  C   UNL     1      62.922  39.685  21.507  1.00  0.00     0.047 A 
ATOM     27  C   UNL     1      63.942  38.752  21.549  1.00  0.00     0.119 A 
BRANCH  27  28
ATOM     28  O   UNL     1      65.292  39.164  21.535  1.00  0.00    -0.491 OA
BRANCH  28  29
ATOM     29  C   UNL     1      66.061  39.083  20.369  1.00  0.00     0.167 C 
ATOM     30  C   UNL     1      66.611  37.665  20.228  1.00  0.00     0.052 C 
ATOM     31  C   UNL     1      65.200  39.510  19.191  1.00  0.00     0.052 C 
ENDBRANCH  28  29
ENDBRANCH  27  28
ENDBRANCH   4  22
TORSDOF 10
