REMARK SMILES CC(C)C[C@@H](C(=O)NO)C(=O)N[C@@H]1CCN(c2ccccc2)C1=O
REMARK SMILES IDX 5 1 10 2 12 3 11 4 13 6 16 7 23 8 15 9 24 10 14 11 17 12
REMARK SMILES IDX 18 13 19 14 22 15 20 16 21 17 6 18 8 19 7 20 9 22 4 24 2 25
REMARK SMILES IDX 1 26 3 27
REMARK H PARENT 12 5 8 21 9 23
ROOT
ATOM      1  C   UNL     1      53.849  36.655  23.051  1.00  0.00     0.170 C 
ENDROOT
BRANCH   1   2
ATOM      2  C   UNL     1      54.945  37.415  22.361  1.00  0.00     0.233 C 
ATOM      3  N   UNL     1      56.020  36.617  21.919  1.00  0.00    -0.344 N 
ATOM      4  O   UNL     1      54.889  38.583  22.225  1.00  0.00    -0.274 OA
ATOM      5  H   UNL     1      55.989  35.601  22.086  1.00  0.00     0.164 HD
BRANCH   3   6
ATOM      6  C   UNL     1      57.234  37.214  21.198  1.00  0.00     0.173 C 
ATOM      7  N   UNL     1      59.075  36.017  20.650  1.00  0.00    -0.311 N 
ATOM      8  C   UNL     1      58.253  36.805  21.749  1.00  0.00     0.249 C 
ATOM      9  C   UNL     1      58.251  36.096  19.362  1.00  0.00     0.128 C 
ATOM     10  O   UNL     1      58.571  36.975  22.870  1.00  0.00    -0.272 OA
ATOM     11  C   UNL     1      57.149  36.616  19.633  1.00  0.00     0.057 C 
BRANCH   7  12
ATOM     12  C   UNL     1      60.343  35.322  20.726  1.00  0.00     0.044 A 
ATOM     13  C   UNL     1      61.369  35.673  19.854  1.00  0.00     0.026 A 
ATOM     14  C   UNL     1      62.577  34.980  19.899  1.00  0.00     0.002 A 
ATOM     15  C   UNL     1      60.503  34.271  21.607  1.00  0.00     0.026 A 
ATOM     16  C   UNL     1      62.737  33.930  20.784  1.00  0.00     0.000 A 
ATOM     17  C   UNL     1      61.695  33.588  21.639  1.00  0.00     0.002 A 
ENDBRANCH   7  12
ENDBRANCH   3   6
ENDBRANCH   1   2
BRANCH   1  18
ATOM     18  C   UNL     1      52.575  36.728  22.244  1.00  0.00     0.255 C 
ATOM     19  N   UNL     1      51.759  35.575  22.344  1.00  0.00    -0.237 N 
ATOM     20  O   UNL     1      52.221  37.642  21.557  1.00  0.00    -0.272 OA
ATOM     21  H   UNL     1      52.073  34.751  22.876  1.00  0.00     0.198 HD
BRANCH  19  22
ATOM     22  O   UNL     1      50.529  35.582  21.709  1.00  0.00    -0.289 OA
ATOM     23  H   UNL     1      49.808  35.586  22.387  1.00  0.00     0.246 HD
ENDBRANCH  19  22
ENDBRANCH   1  18
BRANCH   1  24
ATOM     24  C   UNL     1      53.599  37.294  24.418  1.00  0.00     0.026 C 
BRANCH  24  25
ATOM     25  C   UNL     1      54.859  37.384  25.292  1.00  0.00    -0.016 C 
ATOM     26  C   UNL     1      55.481  36.019  25.522  1.00  0.00     0.007 C 
ATOM     27  C   UNL     1      54.569  38.072  26.628  1.00  0.00     0.007 C 
ENDBRANCH  24  25
ENDBRANCH   1  24
TORSDOF 7
