MODEL 1
REMARK VINA RESULT:    -9.285      0.000      0.000
REMARK INTER + INTRA:         -17.931
REMARK INTER:                 -16.613
REMARK INTRA:                  -1.318
REMARK UNBOUND:                -1.318
REMARK SMILES CC(C)C[C@H](N[P@](=O)(O)O[C@@H]1O[C@@H](C)[C@H](O)[C@@H](O)[C@H]1O)C(=O)N[C@@H](Cc1c[nH]c2ccccc12)C(=O)O
REMARK SMILES IDX 6 1 7 3 8 4 10 5 11 6 19 7 12 8 17 9 13 10 15 11 14 12 20 13
REMARK SMILES IDX 18 15 16 17 9 19 5 21 21 22 22 23 23 24 24 26 35 27 36 28
REMARK SMILES IDX 37 29 25 31 26 32 27 33 34 34 28 35 29 36 33 37 30 38 32 39
REMARK SMILES IDX 31 40 4 42 2 43 1 44 3 45
REMARK H PARENT 6 2 20 14 18 16 16 18 9 20 23 25 37 30 28 41
ROOT
ATOM      1  N   UNL     1      52.902  35.512  22.769  1.00  0.00    -0.210 NA
ATOM      2  H   UNL     1      52.011  35.212  23.190  1.00  0.00     0.135 HD
ENDROOT
BRANCH   1   3
ATOM      3  P   UNL     1      52.619  35.662  21.114  1.00  0.00     0.406 P 
ATOM      4  O   UNL     1      53.861  35.202  20.408  1.00  0.00    -0.241 OA
BRANCH   3   5
ATOM      5  O   UNL     1      51.447  34.666  20.799  1.00  0.00    -0.264 OA
BRANCH   5   6
ATOM      6  C   UNL     1      51.551  33.540  19.988  1.00  0.00     0.292 C 
ATOM      7  C   UNL     1      50.185  32.805  19.859  1.00  0.00     0.202 C 
ATOM      8  O   UNL     1      52.045  33.947  18.681  1.00  0.00    -0.344 OA
ATOM      9  C   UNL     1      49.177  33.679  19.069  1.00  0.00     0.179 C 
ATOM     10  C   UNL     1      51.135  34.777  17.933  1.00  0.00     0.150 C 
ATOM     11  C   UNL     1      49.795  34.055  17.691  1.00  0.00     0.174 C 
ATOM     12  C   UNL     1      51.784  35.150  16.617  1.00  0.00     0.041 C 
BRANCH   7  13
ATOM     13  O   UNL     1      50.367  31.552  19.229  1.00  0.00    -0.385 OA
ATOM     14  H   UNL     1      49.554  31.323  18.712  1.00  0.00     0.211 HD
ENDBRANCH   7  13
BRANCH   9  15
ATOM     15  O   UNL     1      47.911  32.984  18.943  1.00  0.00    -0.387 OA
ATOM     16  H   UNL     1      47.697  32.858  17.984  1.00  0.00     0.211 HD
ENDBRANCH   9  15
BRANCH  11  17
ATOM     17  O   UNL     1      48.890  34.931  16.974  1.00  0.00    -0.388 OA
ATOM     18  H   UNL     1      48.625  35.684  17.560  1.00  0.00     0.211 HD
ENDBRANCH  11  17
ENDBRANCH   5   6
ENDBRANCH   3   5
BRANCH   3  19
ATOM     19  O   UNL     1      52.169  37.004  20.825  1.00  0.00    -0.312 OA
ATOM     20  H   UNL     1      51.783  37.406  21.644  1.00  0.00     0.222 HD
ENDBRANCH   3  19
ENDBRANCH   1   3
BRANCH   1  21
ATOM     21  C   UNL     1      53.393  36.671  23.600  1.00  0.00     0.154 C 
BRANCH  21  22
ATOM     22  C   UNL     1      54.463  37.417  22.831  1.00  0.00     0.238 C 
ATOM     23  O   UNL     1      54.347  38.513  22.323  1.00  0.00    -0.273 OA
ATOM     24  N   UNL     1      55.745  36.708  22.702  1.00  0.00    -0.341 N 
ATOM     25  H   UNL     1      55.895  35.782  23.127  1.00  0.00     0.164 HD
BRANCH  24  26
ATOM     26  C   UNL     1      56.823  37.395  21.924  1.00  0.00     0.196 C 
BRANCH  26  27
ATOM     27  C   UNL     1      56.874  36.737  20.508  1.00  0.00     0.326 C 
ATOM     28  O   UNL     1      57.047  37.464  19.492  1.00  0.00    -0.250 OA
BRANCH  27  29
ATOM     29  O   UNL     1      56.738  35.519  20.453  1.00  0.00    -0.480 OA
ATOM     30  H   UNL     1      55.871  35.130  20.175  1.00  0.00     0.296 HD
ENDBRANCH  27  29
ENDBRANCH  26  27
BRANCH  26  31
ATOM     31  C   UNL     1      58.204  37.254  22.708  1.00  0.00     0.074 C 
BRANCH  31  32
ATOM     32  C   UNL     1      59.417  37.630  21.835  1.00  0.00    -0.020 A 
ATOM     33  C   UNL     1      60.491  36.826  21.530  1.00  0.00     0.087 A 
ATOM     34  C   UNL     1      59.646  38.890  21.177  1.00  0.00     0.003 A 
ATOM     35  N   UNL     1      61.379  37.508  20.718  1.00  0.00    -0.361 N 
ATOM     36  C   UNL     1      60.893  38.794  20.474  1.00  0.00     0.046 A 
ATOM     37  C   UNL     1      58.889  40.139  21.110  1.00  0.00     0.010 A 
ATOM     38  C   UNL     1      61.460  39.873  19.688  1.00  0.00     0.026 A 
ATOM     39  C   UNL     1      59.416  41.220  20.349  1.00  0.00     0.001 A 
ATOM     40  C   UNL     1      60.706  41.085  19.637  1.00  0.00     0.002 A 
ATOM     41  H   UNL     1      62.263  37.127  20.350  1.00  0.00     0.166 HD
ENDBRANCH  31  32
ENDBRANCH  26  31
ENDBRANCH  24  26
ENDBRANCH  21  22
BRANCH  21  42
ATOM     42  C   UNL     1      53.997  36.148  24.928  1.00  0.00     0.032 C 
BRANCH  42  43
ATOM     43  C   UNL     1      53.640  36.976  26.179  1.00  0.00    -0.015 C 
ATOM     44  C   UNL     1      52.639  38.030  25.711  1.00  0.00     0.007 C 
ATOM     45  C   UNL     1      54.898  37.677  26.786  1.00  0.00     0.007 C 
ENDBRANCH  42  43
ENDBRANCH  21  42
ENDBRANCH   1  21
TORSDOF 16
ENDMDL
MODEL 2
REMARK VINA RESULT:    -9.031      1.439      1.979
REMARK INTER + INTRA:         -17.477
REMARK INTER:                 -16.284
REMARK INTRA:                  -1.192
REMARK UNBOUND:                -1.318
REMARK SMILES CC(C)C[C@H](N[P@](=O)(O)O[C@@H]1O[C@@H](C)[C@H](O)[C@@H](O)[C@H]1O)C(=O)N[C@@H](Cc1c[nH]c2ccccc12)C(=O)O
REMARK SMILES IDX 6 1 7 3 8 4 10 5 11 6 19 7 12 8 17 9 13 10 15 11 14 12 20 13
REMARK SMILES IDX 18 15 16 17 9 19 5 21 21 22 22 23 23 24 24 26 35 27 36 28
REMARK SMILES IDX 37 29 25 31 26 32 27 33 34 34 28 35 29 36 33 37 30 38 32 39
REMARK SMILES IDX 31 40 4 42 2 43 1 44 3 45
REMARK H PARENT 6 2 20 14 18 16 16 18 9 20 23 25 37 30 28 41
ROOT
ATOM      1  N   UNL     1      53.268  35.596  22.938  1.00  0.00    -0.210 NA
ATOM      2  H   UNL     1      52.687  35.209  23.695  1.00  0.00     0.135 HD
ENDROOT
BRANCH   1   3
ATOM      3  P   UNL     1      52.295  35.628  21.562  1.00  0.00     0.406 P 
ATOM      4  O   UNL     1      52.204  37.058  21.116  1.00  0.00    -0.241 OA
BRANCH   3   5
ATOM      5  O   UNL     1      53.072  34.798  20.481  1.00  0.00    -0.264 OA
BRANCH   5   6
ATOM      6  C   UNL     1      52.590  33.654  19.852  1.00  0.00     0.292 C 
ATOM      7  C   UNL     1      51.095  33.813  19.451  1.00  0.00     0.202 C 
ATOM      8  O   UNL     1      53.412  33.378  18.684  1.00  0.00    -0.344 OA
ATOM      9  C   UNL     1      50.949  34.879  18.333  1.00  0.00     0.179 C 
ATOM     10  C   UNL     1      53.311  34.363  17.638  1.00  0.00     0.150 C 
ATOM     11  C   UNL     1      51.860  34.492  17.133  1.00  0.00     0.174 C 
ATOM     12  C   UNL     1      54.236  33.971  16.506  1.00  0.00     0.041 C 
BRANCH   7  13
ATOM     13  O   UNL     1      50.570  32.570  19.030  1.00  0.00    -0.385 OA
ATOM     14  H   UNL     1      51.301  31.903  18.984  1.00  0.00     0.211 HD
ENDBRANCH   7  13
BRANCH   9  15
ATOM     15  O   UNL     1      49.556  35.015  17.956  1.00  0.00    -0.387 OA
ATOM     16  H   UNL     1      48.982  34.827  18.741  1.00  0.00     0.211 HD
ENDBRANCH   9  15
BRANCH  11  17
ATOM     17  O   UNL     1      51.787  35.519  16.113  1.00  0.00    -0.388 OA
ATOM     18  H   UNL     1      51.588  36.391  16.537  1.00  0.00     0.211 HD
ENDBRANCH  11  17
ENDBRANCH   5   6
ENDBRANCH   3   5
BRANCH   3  19
ATOM     19  O   UNL     1      51.046  34.956  21.843  1.00  0.00    -0.312 OA
ATOM     20  H   UNL     1      50.330  35.340  21.277  1.00  0.00     0.222 HD
ENDBRANCH   3  19
ENDBRANCH   1   3
BRANCH   1  21
ATOM     21  C   UNL     1      53.905  36.847  23.490  1.00  0.00     0.154 C 
BRANCH  21  22
ATOM     22  C   UNL     1      54.871  37.407  22.467  1.00  0.00     0.238 C 
ATOM     23  O   UNL     1      55.055  38.582  22.224  1.00  0.00    -0.273 OA
ATOM     24  N   UNL     1      55.630  36.400  21.711  1.00  0.00    -0.341 N 
ATOM     25  H   UNL     1      55.517  35.392  21.890  1.00  0.00     0.164 HD
BRANCH  24  26
ATOM     26  C   UNL     1      56.576  36.907  20.668  1.00  0.00     0.196 C 
BRANCH  26  27
ATOM     27  C   UNL     1      56.640  35.838  19.530  1.00  0.00     0.326 C 
ATOM     28  O   UNL     1      57.385  36.038  18.532  1.00  0.00    -0.250 OA
BRANCH  27  29
ATOM     29  O   UNL     1      55.945  34.836  19.667  1.00  0.00    -0.480 OA
ATOM     30  H   UNL     1      55.452  34.687  20.512  1.00  0.00     0.296 HD
ENDBRANCH  27  29
ENDBRANCH  26  27
BRANCH  26  31
ATOM     31  C   UNL     1      58.000  37.167  21.336  1.00  0.00     0.074 C 
BRANCH  31  32
ATOM     32  C   UNL     1      58.618  38.509  20.898  1.00  0.00    -0.020 A 
ATOM     33  C   UNL     1      58.025  39.471  20.114  1.00  0.00     0.087 A 
ATOM     34  C   UNL     1      59.929  39.002  21.233  1.00  0.00     0.003 A 
ATOM     35  N   UNL     1      58.887  40.539  19.939  1.00  0.00    -0.361 N 
ATOM     36  C   UNL     1      60.081  40.289  20.618  1.00  0.00     0.046 A 
ATOM     37  C   UNL     1      61.033  38.460  22.024  1.00  0.00     0.010 A 
ATOM     38  C   UNL     1      61.277  41.100  20.732  1.00  0.00     0.026 A 
ATOM     39  C   UNL     1      62.224  39.229  22.157  1.00  0.00     0.001 A 
ATOM     40  C   UNL     1      62.344  40.553  21.508  1.00  0.00     0.002 A 
ATOM     41  H   UNL     1      58.680  41.387  19.393  1.00  0.00     0.166 HD
ENDBRANCH  31  32
ENDBRANCH  26  31
ENDBRANCH  24  26
ENDBRANCH  21  22
BRANCH  21  42
ATOM     42  C   UNL     1      54.683  36.513  24.788  1.00  0.00     0.032 C 
BRANCH  42  43
ATOM     43  C   UNL     1      54.018  37.000  26.092  1.00  0.00    -0.015 C 
ATOM     44  C   UNL     1      52.943  37.998  25.665  1.00  0.00     0.007 C 
ATOM     45  C   UNL     1      55.046  37.704  27.035  1.00  0.00     0.007 C 
ENDBRANCH  42  43
ENDBRANCH  21  42
ENDBRANCH   1  21
TORSDOF 16
ENDMDL
MODEL 3
REMARK VINA RESULT:    -9.008      0.977      2.002
REMARK INTER + INTRA:         -17.434
REMARK INTER:                 -16.242
REMARK INTRA:                  -1.193
REMARK UNBOUND:                -1.318
REMARK SMILES CC(C)C[C@H](N[P@](=O)(O)O[C@@H]1O[C@@H](C)[C@H](O)[C@@H](O)[C@H]1O)C(=O)N[C@@H](Cc1c[nH]c2ccccc12)C(=O)O
REMARK SMILES IDX 6 1 7 3 8 4 10 5 11 6 19 7 12 8 17 9 13 10 15 11 14 12 20 13
REMARK SMILES IDX 18 15 16 17 9 19 5 21 21 22 22 23 23 24 24 26 35 27 36 28
REMARK SMILES IDX 37 29 25 31 26 32 27 33 34 34 28 35 29 36 33 37 30 38 32 39
REMARK SMILES IDX 31 40 4 42 2 43 1 44 3 45
REMARK H PARENT 6 2 20 14 18 16 16 18 9 20 23 25 37 30 28 41
ROOT
ATOM      1  N   UNL     1      52.882  35.527  22.778  1.00  0.00    -0.210 NA
ATOM      2  H   UNL     1      51.981  35.207  23.161  1.00  0.00     0.135 HD
ENDROOT
BRANCH   1   3
ATOM      3  P   UNL     1      52.652  35.713  21.118  1.00  0.00     0.406 P 
ATOM      4  O   UNL     1      53.899  35.225  20.441  1.00  0.00    -0.241 OA
BRANCH   3   5
ATOM      5  O   UNL     1      51.460  34.761  20.752  1.00  0.00    -0.264 OA
BRANCH   5   6
ATOM      6  C   UNL     1      51.565  33.609  19.977  1.00  0.00     0.292 C 
ATOM      7  C   UNL     1      50.195  32.882  19.852  1.00  0.00     0.202 C 
ATOM      8  O   UNL     1      52.080  33.971  18.666  1.00  0.00    -0.344 OA
ATOM      9  C   UNL     1      49.205  33.739  19.020  1.00  0.00     0.179 C 
ATOM     10  C   UNL     1      51.189  34.784  17.879  1.00  0.00     0.150 C 
ATOM     11  C   UNL     1      49.846  34.067  17.641  1.00  0.00     0.174 C 
ATOM     12  C   UNL     1      51.859  35.111  16.562  1.00  0.00     0.041 C 
BRANCH   7  13
ATOM     13  O   UNL     1      50.373  31.609  19.264  1.00  0.00    -0.385 OA
ATOM     14  H   UNL     1      50.321  31.691  18.279  1.00  0.00     0.211 HD
ENDBRANCH   7  13
BRANCH   9  15
ATOM     15  O   UNL     1      47.935  33.052  18.898  1.00  0.00    -0.387 OA
ATOM     16  H   UNL     1      47.524  33.271  18.025  1.00  0.00     0.211 HD
ENDBRANCH   9  15
BRANCH  11  17
ATOM     17  O   UNL     1      48.959  34.928  16.884  1.00  0.00    -0.388 OA
ATOM     18  H   UNL     1      49.447  35.304  16.108  1.00  0.00     0.211 HD
ENDBRANCH  11  17
ENDBRANCH   5   6
ENDBRANCH   3   5
BRANCH   3  19
ATOM     19  O   UNL     1      52.253  37.074  20.839  1.00  0.00    -0.312 OA
ATOM     20  H   UNL     1      51.404  37.271  21.308  1.00  0.00     0.222 HD
ENDBRANCH   3  19
ENDBRANCH   1   3
BRANCH   1  21
ATOM     21  C   UNL     1      53.329  36.672  23.652  1.00  0.00     0.154 C 
BRANCH  21  22
ATOM     22  C   UNL     1      54.458  37.412  22.964  1.00  0.00     0.238 C 
ATOM     23  O   UNL     1      54.388  38.512  22.455  1.00  0.00    -0.273 OA
ATOM     24  N   UNL     1      55.739  36.691  22.922  1.00  0.00    -0.341 N 
ATOM     25  H   UNL     1      55.850  35.762  23.351  1.00  0.00     0.164 HD
BRANCH  24  26
ATOM     26  C   UNL     1      56.876  37.372  22.226  1.00  0.00     0.196 C 
BRANCH  26  27
ATOM     27  C   UNL     1      56.918  36.836  20.759  1.00  0.00     0.326 C 
ATOM     28  O   UNL     1      56.971  37.654  19.801  1.00  0.00    -0.250 OA
BRANCH  27  29
ATOM     29  O   UNL     1      56.895  35.619  20.609  1.00  0.00    -0.480 OA
ATOM     30  H   UNL     1      56.032  35.152  20.474  1.00  0.00     0.296 HD
ENDBRANCH  27  29
ENDBRANCH  26  27
BRANCH  26  31
ATOM     31  C   UNL     1      58.226  37.075  23.019  1.00  0.00     0.074 C 
BRANCH  31  32
ATOM     32  C   UNL     1      59.480  37.468  22.213  1.00  0.00    -0.020 A 
ATOM     33  C   UNL     1      59.671  38.633  21.507  1.00  0.00     0.087 A 
ATOM     34  C   UNL     1      60.680  36.688  22.054  1.00  0.00     0.003 A 
ATOM     35  N   UNL     1      60.922  38.630  20.917  1.00  0.00    -0.361 N 
ATOM     36  C   UNL     1      61.583  37.441  21.231  1.00  0.00     0.046 A 
ATOM     37  C   UNL     1      61.097  35.377  22.547  1.00  0.00     0.010 A 
ATOM     38  C   UNL     1      62.902  36.977  20.850  1.00  0.00     0.026 A 
ATOM     39  C   UNL     1      62.386  34.888  22.192  1.00  0.00     0.001 A 
ATOM     40  C   UNL     1      63.290  35.693  21.341  1.00  0.00     0.002 A 
ATOM     41  H   UNL     1      61.308  39.388  20.335  1.00  0.00     0.166 HD
ENDBRANCH  31  32
ENDBRANCH  26  31
ENDBRANCH  24  26
ENDBRANCH  21  22
BRANCH  21  42
ATOM     42  C   UNL     1      53.835  36.130  25.012  1.00  0.00     0.032 C 
BRANCH  42  43
ATOM     43  C   UNL     1      53.524  37.024  26.229  1.00  0.00    -0.015 C 
ATOM     44  C   UNL     1      52.546  38.085  25.729  1.00  0.00     0.007 C 
ATOM     45  C   UNL     1      54.812  37.715  26.782  1.00  0.00     0.007 C 
ENDBRANCH  42  43
ENDBRANCH  21  42
ENDBRANCH   1  21
TORSDOF 16
ENDMDL
MODEL 4
REMARK VINA RESULT:    -8.604      3.737      6.500
REMARK INTER + INTRA:         -16.713
REMARK INTER:                 -15.406
REMARK INTRA:                  -1.307
REMARK UNBOUND:                -1.318
REMARK SMILES CC(C)C[C@H](N[P@](=O)(O)O[C@@H]1O[C@@H](C)[C@H](O)[C@@H](O)[C@H]1O)C(=O)N[C@@H](Cc1c[nH]c2ccccc12)C(=O)O
REMARK SMILES IDX 6 1 7 3 8 4 10 5 11 6 19 7 12 8 17 9 13 10 15 11 14 12 20 13
REMARK SMILES IDX 18 15 16 17 9 19 5 21 21 22 22 23 23 24 24 26 35 27 36 28
REMARK SMILES IDX 37 29 25 31 26 32 27 33 34 34 28 35 29 36 33 37 30 38 32 39
REMARK SMILES IDX 31 40 4 42 2 43 1 44 3 45
REMARK H PARENT 6 2 20 14 18 16 16 18 9 20 23 25 37 30 28 41
ROOT
ATOM      1  N   UNL     1      50.935  34.201  18.798  1.00  0.00    -0.210 NA
ATOM      2  H   UNL     1      51.411  34.246  17.886  1.00  0.00     0.135 HD
ENDROOT
BRANCH   1   3
ATOM      3  P   UNL     1      49.618  33.169  18.595  1.00  0.00     0.406 P 
ATOM      4  O   UNL     1      48.829  33.200  19.871  1.00  0.00    -0.241 OA
BRANCH   3   5
ATOM      5  O   UNL     1      48.763  33.805  17.444  1.00  0.00    -0.264 OA
BRANCH   5   6
ATOM      6  C   UNL     1      47.387  34.013  17.491  1.00  0.00     0.292 C 
ATOM      7  C   UNL     1      46.956  35.176  16.550  1.00  0.00     0.202 C 
ATOM      8  O   UNL     1      46.712  32.777  17.129  1.00  0.00    -0.344 OA
ATOM      9  C   UNL     1      47.169  34.774  15.067  1.00  0.00     0.179 C 
ATOM     10  C   UNL     1      46.910  32.370  15.760  1.00  0.00     0.150 C 
ATOM     11  C   UNL     1      46.407  33.448  14.781  1.00  0.00     0.174 C 
ATOM     12  C   UNL     1      46.184  31.061  15.531  1.00  0.00     0.041 C 
BRANCH   7  13
ATOM     13  O   UNL     1      45.605  35.517  16.789  1.00  0.00    -0.385 OA
ATOM     14  H   UNL     1      45.022  34.765  16.517  1.00  0.00     0.211 HD
ENDBRANCH   7  13
BRANCH   9  15
ATOM     15  O   UNL     1      46.755  35.856  14.196  1.00  0.00    -0.387 OA
ATOM     16  H   UNL     1      46.954  35.618  13.256  1.00  0.00     0.211 HD
ENDBRANCH   9  15
BRANCH  11  17
ATOM     17  O   UNL     1      46.658  33.025  13.418  1.00  0.00    -0.388 OA
ATOM     18  H   UNL     1      47.553  33.341  13.134  1.00  0.00     0.211 HD
ENDBRANCH  11  17
ENDBRANCH   5   6
ENDBRANCH   3   5
BRANCH   3  19
ATOM     19  O   UNL     1      50.088  31.875  18.155  1.00  0.00    -0.312 OA
ATOM     20  H   UNL     1      51.073  31.833  18.245  1.00  0.00     0.222 HD
ENDBRANCH   3  19
ENDBRANCH   1   3
BRANCH   1  21
ATOM     21  C   UNL     1      52.008  33.929  19.822  1.00  0.00     0.154 C 
BRANCH  21  22
ATOM     22  C   UNL     1      51.995  35.029  20.863  1.00  0.00     0.238 C 
ATOM     23  O   UNL     1      51.036  35.702  21.180  1.00  0.00    -0.273 OA
ATOM     24  N   UNL     1      53.287  35.282  21.519  1.00  0.00    -0.341 N 
ATOM     25  H   UNL     1      54.124  34.728  21.291  1.00  0.00     0.164 HD
BRANCH  24  26
ATOM     26  C   UNL     1      53.327  36.381  22.533  1.00  0.00     0.196 C 
BRANCH  26  27
ATOM     27  C   UNL     1      54.616  37.221  22.265  1.00  0.00     0.326 C 
ATOM     28  O   UNL     1      54.566  38.479  22.350  1.00  0.00    -0.250 OA
BRANCH  27  29
ATOM     29  O   UNL     1      55.636  36.603  21.976  1.00  0.00    -0.480 OA
ATOM     30  H   UNL     1      56.503  36.864  22.377  1.00  0.00     0.296 HD
ENDBRANCH  27  29
ENDBRANCH  26  27
BRANCH  26  31
ATOM     31  C   UNL     1      53.312  35.744  23.994  1.00  0.00     0.074 C 
BRANCH  31  32
ATOM     32  C   UNL     1      54.098  36.591  25.013  1.00  0.00    -0.020 A 
ATOM     33  C   UNL     1      55.384  36.369  25.450  1.00  0.00     0.087 A 
ATOM     34  C   UNL     1      53.631  37.772  25.693  1.00  0.00     0.003 A 
ATOM     35  N   UNL     1      55.751  37.343  26.362  1.00  0.00    -0.361 N 
ATOM     36  C   UNL     1      54.692  38.234  26.541  1.00  0.00     0.046 A 
ATOM     37  C   UNL     1      52.372  38.513  25.665  1.00  0.00     0.010 A 
ATOM     38  C   UNL     1      54.593  39.408  27.387  1.00  0.00     0.026 A 
ATOM     39  C   UNL     1      52.238  39.671  26.483  1.00  0.00     0.001 A 
ATOM     40  C   UNL     1      53.354  40.118  27.346  1.00  0.00     0.002 A 
ATOM     41  H   UNL     1      56.663  37.401  26.835  1.00  0.00     0.166 HD
ENDBRANCH  31  32
ENDBRANCH  26  31
ENDBRANCH  24  26
ENDBRANCH  21  22
BRANCH  21  42
ATOM     42  C   UNL     1      53.397  33.900  19.135  1.00  0.00     0.032 C 
BRANCH  42  43
ATOM     43  C   UNL     1      53.403  33.347  17.696  1.00  0.00    -0.015 C 
ATOM     44  C   UNL     1      53.591  31.836  17.830  1.00  0.00     0.007 C 
ATOM     45  C   UNL     1      54.572  33.949  16.851  1.00  0.00     0.007 C 
ENDBRANCH  42  43
ENDBRANCH  21  42
ENDBRANCH   1  21
TORSDOF 16
ENDMDL
MODEL 5
REMARK VINA RESULT:    -8.423      5.534     11.875
REMARK INTER + INTRA:         -16.389
REMARK INTER:                 -13.660
REMARK INTRA:                  -2.729
REMARK UNBOUND:                -1.318
REMARK SMILES CC(C)C[C@H](N[P@](=O)(O)O[C@@H]1O[C@@H](C)[C@H](O)[C@@H](O)[C@H]1O)C(=O)N[C@@H](Cc1c[nH]c2ccccc12)C(=O)O
REMARK SMILES IDX 6 1 7 3 8 4 10 5 11 6 19 7 12 8 17 9 13 10 15 11 14 12 20 13
REMARK SMILES IDX 18 15 16 17 9 19 5 21 21 22 22 23 23 24 24 26 35 27 36 28
REMARK SMILES IDX 37 29 25 31 26 32 27 33 34 34 28 35 29 36 33 37 30 38 32 39
REMARK SMILES IDX 31 40 4 42 2 43 1 44 3 45
REMARK H PARENT 6 2 20 14 18 16 16 18 9 20 23 25 37 30 28 41
ROOT
ATOM      1  N   UNL     1      49.166  31.494  17.925  1.00  0.00    -0.210 NA
ATOM      2  H   UNL     1      48.581  30.746  18.326  1.00  0.00     0.135 HD
ENDROOT
BRANCH   1   3
ATOM      3  P   UNL     1      50.766  30.997  18.116  1.00  0.00     0.406 P 
ATOM      4  O   UNL     1      51.356  30.867  16.742  1.00  0.00    -0.241 OA
BRANCH   3   5
ATOM      5  O   UNL     1      51.480  32.169  18.876  1.00  0.00    -0.264 OA
BRANCH   5   6
ATOM      6  C   UNL     1      51.554  33.485  18.428  1.00  0.00     0.292 C 
ATOM      7  C   UNL     1      50.749  34.446  19.351  1.00  0.00     0.202 C 
ATOM      8  O   UNL     1      52.951  33.881  18.362  1.00  0.00    -0.344 OA
ATOM      9  C   UNL     1      51.424  34.542  20.745  1.00  0.00     0.179 C 
ATOM     10  C   UNL     1      53.609  33.960  19.643  1.00  0.00     0.150 C 
ATOM     11  C   UNL     1      52.907  34.975  20.566  1.00  0.00     0.174 C 
ATOM     12  C   UNL     1      55.056  34.348  19.426  1.00  0.00     0.041 C 
BRANCH   7  13
ATOM     13  O   UNL     1      50.647  35.722  18.752  1.00  0.00    -0.385 OA
ATOM     14  H   UNL     1      49.928  36.238  19.196  1.00  0.00     0.211 HD
ENDBRANCH   7  13
BRANCH   9  15
ATOM     15  O   UNL     1      50.676  35.446  21.596  1.00  0.00    -0.387 OA
ATOM     16  H   UNL     1      50.658  36.347  21.185  1.00  0.00     0.211 HD
ENDBRANCH   9  15
BRANCH  11  17
ATOM     17  O   UNL     1      53.567  34.998  21.857  1.00  0.00    -0.388 OA
ATOM     18  H   UNL     1      54.152  35.795  21.913  1.00  0.00     0.211 HD
ENDBRANCH  11  17
ENDBRANCH   5   6
ENDBRANCH   3   5
BRANCH   3  19
ATOM     19  O   UNL     1      50.805  29.818  18.952  1.00  0.00    -0.312 OA
ATOM     20  H   UNL     1      50.903  29.014  18.383  1.00  0.00     0.222 HD
ENDBRANCH   3  19
ENDBRANCH   1   3
BRANCH   1  21
ATOM     21  C   UNL     1      48.586  31.804  16.568  1.00  0.00     0.154 C 
BRANCH  21  22
ATOM     22  C   UNL     1      48.125  33.246  16.541  1.00  0.00     0.238 C 
ATOM     23  O   UNL     1      48.828  34.225  16.691  1.00  0.00    -0.273 OA
ATOM     24  N   UNL     1      46.684  33.436  16.320  1.00  0.00    -0.341 N 
ATOM     25  H   UNL     1      46.051  32.636  16.175  1.00  0.00     0.164 HD
BRANCH  24  26
ATOM     26  C   UNL     1      46.179  34.845  16.315  1.00  0.00     0.196 C 
BRANCH  26  27
ATOM     27  C   UNL     1      44.681  34.809  16.755  1.00  0.00     0.326 C 
ATOM     28  O   UNL     1      44.041  33.724  16.689  1.00  0.00    -0.250 OA
BRANCH  27  29
ATOM     29  O   UNL     1      44.190  35.861  17.150  1.00  0.00    -0.480 OA
ATOM     30  H   UNL     1      43.764  36.481  16.506  1.00  0.00     0.296 HD
ENDBRANCH  27  29
ENDBRANCH  26  27
BRANCH  26  31
ATOM     31  C   UNL     1      46.369  35.462  14.857  1.00  0.00     0.074 C 
BRANCH  31  32
ATOM     32  C   UNL     1      45.914  34.496  13.746  1.00  0.00    -0.020 A 
ATOM     33  C   UNL     1      44.636  34.346  13.261  1.00  0.00     0.087 A 
ATOM     34  C   UNL     1      46.744  33.576  13.012  1.00  0.00     0.003 A 
ATOM     35  N   UNL     1      44.616  33.387  12.263  1.00  0.00    -0.361 N 
ATOM     36  C   UNL     1      45.905  32.883  12.077  1.00  0.00     0.046 A 
ATOM     37  C   UNL     1      48.170  33.258  13.055  1.00  0.00     0.010 A 
ATOM     38  C   UNL     1      46.388  31.873  11.157  1.00  0.00     0.026 A 
ATOM     39  C   UNL     1      48.680  32.270  12.166  1.00  0.00     0.001 A 
ATOM     40  C   UNL     1      47.784  31.576  11.215  1.00  0.00     0.002 A 
ATOM     41  H   UNL     1      43.781  33.090  11.740  1.00  0.00     0.166 HD
ENDBRANCH  31  32
ENDBRANCH  26  31
ENDBRANCH  24  26
ENDBRANCH  21  22
BRANCH  21  42
ATOM     42  C   UNL     1      47.372  30.881  16.290  1.00  0.00     0.032 C 
BRANCH  42  43
ATOM     43  C   UNL     1      47.310  30.292  14.867  1.00  0.00    -0.015 C 
ATOM     44  C   UNL     1      45.825  30.175  14.528  1.00  0.00     0.007 C 
ATOM     45  C   UNL     1      47.979  28.882  14.795  1.00  0.00     0.007 C 
ENDBRANCH  42  43
ENDBRANCH  21  42
ENDBRANCH   1  21
TORSDOF 16
ENDMDL
MODEL 6
REMARK VINA RESULT:    -8.414      6.271      9.426
REMARK INTER + INTRA:         -16.372
REMARK INTER:                 -13.576
REMARK INTRA:                  -2.796
REMARK UNBOUND:                -1.318
REMARK SMILES CC(C)C[C@H](N[P@](=O)(O)O[C@@H]1O[C@@H](C)[C@H](O)[C@@H](O)[C@H]1O)C(=O)N[C@@H](Cc1c[nH]c2ccccc12)C(=O)O
REMARK SMILES IDX 6 1 7 3 8 4 10 5 11 6 19 7 12 8 17 9 13 10 15 11 14 12 20 13
REMARK SMILES IDX 18 15 16 17 9 19 5 21 21 22 22 23 23 24 24 26 35 27 36 28
REMARK SMILES IDX 37 29 25 31 26 32 27 33 34 34 28 35 29 36 33 37 30 38 32 39
REMARK SMILES IDX 31 40 4 42 2 43 1 44 3 45
REMARK H PARENT 6 2 20 14 18 16 16 18 9 20 23 25 37 30 28 41
ROOT
ATOM      1  N   UNL     1      49.424  35.680  15.188  1.00  0.00    -0.210 NA
ATOM      2  H   UNL     1      50.051  35.735  14.372  1.00  0.00     0.135 HD
ENDROOT
BRANCH   1   3
ATOM      3  P   UNL     1      48.004  36.476  14.748  1.00  0.00     0.406 P 
ATOM      4  O   UNL     1      48.403  37.702  13.980  1.00  0.00    -0.241 OA
BRANCH   3   5
ATOM      5  O   UNL     1      47.252  35.489  13.789  1.00  0.00    -0.264 OA
BRANCH   5   6
ATOM      6  C   UNL     1      45.875  35.468  13.582  1.00  0.00     0.292 C 
ATOM      7  C   UNL     1      45.480  34.424  12.497  1.00  0.00     0.202 C 
ATOM      8  O   UNL     1      45.215  35.177  14.845  1.00  0.00    -0.344 OA
ATOM      9  C   UNL     1      45.749  32.986  13.012  1.00  0.00     0.179 C 
ATOM     10  C   UNL     1      45.464  33.852  15.356  1.00  0.00     0.150 C 
ATOM     11  C   UNL     1      44.999  32.774  14.358  1.00  0.00     0.174 C 
ATOM     12  C   UNL     1      44.749  33.697  16.681  1.00  0.00     0.041 C 
BRANCH   7  13
ATOM     13  O   UNL     1      44.121  34.585  12.143  1.00  0.00    -0.385 OA
ATOM     14  H   UNL     1      43.992  34.314  11.199  1.00  0.00     0.211 HD
ENDBRANCH   7  13
BRANCH   9  15
ATOM     15  O   UNL     1      45.368  32.018  12.001  1.00  0.00    -0.387 OA
ATOM     16  H   UNL     1      45.575  31.105  12.324  1.00  0.00     0.211 HD
ENDBRANCH   9  15
BRANCH  11  17
ATOM     17  O   UNL     1      45.302  31.458  14.884  1.00  0.00    -0.388 OA
ATOM     18  H   UNL     1      46.144  31.496  15.404  1.00  0.00     0.211 HD
ENDBRANCH  11  17
ENDBRANCH   5   6
ENDBRANCH   3   5
BRANCH   3  19
ATOM     19  O   UNL     1      47.188  36.684  15.923  1.00  0.00    -0.312 OA
ATOM     20  H   UNL     1      46.841  35.813  16.241  1.00  0.00     0.222 HD
ENDBRANCH   3  19
ENDBRANCH   1   3
BRANCH   1  21
ATOM     21  C   UNL     1      49.423  34.237  15.626  1.00  0.00     0.154 C 
BRANCH  21  22
ATOM     22  C   UNL     1      49.221  34.172  17.125  1.00  0.00     0.238 C 
ATOM     23  O   UNL     1      48.154  34.145  17.703  1.00  0.00    -0.273 OA
ATOM     24  N   UNL     1      50.458  34.151  17.920  1.00  0.00    -0.341 N 
ATOM     25  H   UNL     1      51.386  34.160  17.473  1.00  0.00     0.164 HD
BRANCH  24  26
ATOM     26  C   UNL     1      50.307  34.117  19.408  1.00  0.00     0.196 C 
BRANCH  26  27
ATOM     27  C   UNL     1      51.257  35.204  20.003  1.00  0.00     0.326 C 
ATOM     28  O   UNL     1      51.772  35.023  21.140  1.00  0.00    -0.250 OA
BRANCH  27  29
ATOM     29  O   UNL     1      51.458  36.204  19.321  1.00  0.00    -0.480 OA
ATOM     30  H   UNL     1      50.872  36.401  18.548  1.00  0.00     0.296 HD
ENDBRANCH  27  29
ENDBRANCH  26  27
BRANCH  26  31
ATOM     31  C   UNL     1      50.655  32.653  19.934  1.00  0.00     0.074 C 
BRANCH  31  32
ATOM     32  C   UNL     1      51.239  31.754  18.827  1.00  0.00    -0.020 A 
ATOM     33  C   UNL     1      50.611  30.697  18.211  1.00  0.00     0.087 A 
ATOM     34  C   UNL     1      52.547  31.858  18.235  1.00  0.00     0.003 A 
ATOM     35  N   UNL     1      51.448  30.133  17.265  1.00  0.00    -0.361 N 
ATOM     36  C   UNL     1      52.661  30.824  17.246  1.00  0.00     0.046 A 
ATOM     37  C   UNL     1      53.677  32.759  18.450  1.00  0.00     0.010 A 
ATOM     38  C   UNL     1      53.844  30.612  16.435  1.00  0.00     0.026 A 
ATOM     39  C   UNL     1      54.856  32.581  17.672  1.00  0.00     0.001 A 
ATOM     40  C   UNL     1      54.937  31.503  16.662  1.00  0.00     0.002 A 
ATOM     41  H   UNL     1      51.214  29.328  16.667  1.00  0.00     0.166 HD
ENDBRANCH  31  32
ENDBRANCH  26  31
ENDBRANCH  24  26
ENDBRANCH  21  22
BRANCH  21  42
ATOM     42  C   UNL     1      50.780  33.578  15.269  1.00  0.00     0.032 C 
BRANCH  42  43
ATOM     43  C   UNL     1      50.680  32.285  14.436  1.00  0.00    -0.015 C 
ATOM     44  C   UNL     1      51.999  32.177  13.673  1.00  0.00     0.007 C 
ATOM     45  C   UNL     1      49.490  32.340  13.425  1.00  0.00     0.007 C 
ENDBRANCH  42  43
ENDBRANCH  21  42
ENDBRANCH   1  21
TORSDOF 16
ENDMDL
MODEL 7
REMARK VINA RESULT:    -8.393      4.060      7.341
REMARK INTER + INTRA:         -16.335
REMARK INTER:                 -14.726
REMARK INTRA:                  -1.609
REMARK UNBOUND:                -1.318
REMARK SMILES CC(C)C[C@H](N[P@](=O)(O)O[C@@H]1O[C@@H](C)[C@H](O)[C@@H](O)[C@H]1O)C(=O)N[C@@H](Cc1c[nH]c2ccccc12)C(=O)O
REMARK SMILES IDX 6 1 7 3 8 4 10 5 11 6 19 7 12 8 17 9 13 10 15 11 14 12 20 13
REMARK SMILES IDX 18 15 16 17 9 19 5 21 21 22 22 23 23 24 24 26 35 27 36 28
REMARK SMILES IDX 37 29 25 31 26 32 27 33 34 34 28 35 29 36 33 37 30 38 32 39
REMARK SMILES IDX 31 40 4 42 2 43 1 44 3 45
REMARK H PARENT 6 2 20 14 18 16 16 18 9 20 23 25 37 30 28 41
ROOT
ATOM      1  N   UNL     1      48.739  32.804  17.081  1.00  0.00    -0.210 NA
ATOM      2  H   UNL     1      47.883  32.887  17.649  1.00  0.00     0.135 HD
ENDROOT
BRANCH   1   3
ATOM      3  P   UNL     1      49.104  34.360  16.544  1.00  0.00     0.406 P 
ATOM      4  O   UNL     1      50.560  34.374  16.183  1.00  0.00    -0.241 OA
BRANCH   3   5
ATOM      5  O   UNL     1      48.247  34.564  15.245  1.00  0.00    -0.264 OA
BRANCH   5   6
ATOM      6  C   UNL     1      47.340  35.600  15.041  1.00  0.00     0.292 C 
ATOM      7  C   UNL     1      46.787  35.592  13.585  1.00  0.00     0.202 C 
ATOM      8  O   UNL     1      46.259  35.475  16.005  1.00  0.00    -0.344 OA
ATOM      9  C   UNL     1      45.902  34.339  13.354  1.00  0.00     0.179 C 
ATOM     10  C   UNL     1      45.432  34.308  15.825  1.00  0.00     0.150 C 
ATOM     11  C   UNL     1      44.779  34.300  14.430  1.00  0.00     0.174 C 
ATOM     12  C   UNL     1      44.376  34.286  16.909  1.00  0.00     0.041 C 
BRANCH   7  13
ATOM     13  O   UNL     1      46.056  36.776  13.338  1.00  0.00    -0.385 OA
ATOM     14  H   UNL     1      45.413  36.927  14.075  1.00  0.00     0.211 HD
ENDBRANCH   7  13
BRANCH   9  15
ATOM     15  O   UNL     1      45.381  34.343  12.001  1.00  0.00    -0.387 OA
ATOM     16  H   UNL     1      46.024  33.892  11.399  1.00  0.00     0.211 HD
ENDBRANCH   9  15
BRANCH  11  17
ATOM     17  O   UNL     1      43.989  33.095  14.267  1.00  0.00    -0.388 OA
ATOM     18  H   UNL     1      44.031  32.558  15.099  1.00  0.00     0.211 HD
ENDBRANCH  11  17
ENDBRANCH   5   6
ENDBRANCH   3   5
BRANCH   3  19
ATOM     19  O   UNL     1      48.672  35.321  17.533  1.00  0.00    -0.312 OA
ATOM     20  H   UNL     1      47.682  35.346  17.559  1.00  0.00     0.222 HD
ENDBRANCH   3  19
ENDBRANCH   1   3
BRANCH   1  21
ATOM     21  C   UNL     1      49.714  31.997  17.902  1.00  0.00     0.154 C 
BRANCH  21  22
ATOM     22  C   UNL     1      50.081  32.776  19.147  1.00  0.00     0.238 C 
ATOM     23  O   UNL     1      49.363  32.970  20.107  1.00  0.00    -0.273 OA
ATOM     24  N   UNL     1      51.438  33.343  19.150  1.00  0.00    -0.341 N 
ATOM     25  H   UNL     1      52.086  33.194  18.365  1.00  0.00     0.164 HD
BRANCH  24  26
ATOM     26  C   UNL     1      51.833  34.146  20.350  1.00  0.00     0.196 C 
BRANCH  26  27
ATOM     27  C   UNL     1      51.714  35.656  19.965  1.00  0.00     0.326 C 
ATOM     28  O   UNL     1      52.135  36.535  20.765  1.00  0.00    -0.250 OA
BRANCH  27  29
ATOM     29  O   UNL     1      51.204  35.917  18.880  1.00  0.00    -0.480 OA
ATOM     30  H   UNL     1      50.959  36.851  18.661  1.00  0.00     0.296 HD
ENDBRANCH  27  29
ENDBRANCH  26  27
BRANCH  26  31
ATOM     31  C   UNL     1      53.314  33.746  20.781  1.00  0.00     0.074 C 
BRANCH  31  32
ATOM     32  C   UNL     1      54.319  33.870  19.619  1.00  0.00    -0.020 A 
ATOM     33  C   UNL     1      54.395  33.061  18.509  1.00  0.00     0.087 A 
ATOM     34  C   UNL     1      55.359  34.856  19.483  1.00  0.00     0.003 A 
ATOM     35  N   UNL     1      55.422  33.484  17.683  1.00  0.00    -0.361 N 
ATOM     36  C   UNL     1      56.046  34.597  18.250  1.00  0.00     0.046 A 
ATOM     37  C   UNL     1      55.793  35.977  20.314  1.00  0.00     0.010 A 
ATOM     38  C   UNL     1      57.161  35.388  17.768  1.00  0.00     0.026 A 
ATOM     39  C   UNL     1      56.886  36.776  19.872  1.00  0.00     0.001 A 
ATOM     40  C   UNL     1      57.571  36.478  18.595  1.00  0.00     0.002 A 
ATOM     41  H   UNL     1      55.685  33.046  16.789  1.00  0.00     0.166 HD
ENDBRANCH  31  32
ENDBRANCH  26  31
ENDBRANCH  24  26
ENDBRANCH  21  22
BRANCH  21  42
ATOM     42  C   UNL     1      50.999  31.728  17.078  1.00  0.00     0.032 C 
BRANCH  42  43
ATOM     43  C   UNL     1      51.618  30.329  17.270  1.00  0.00    -0.015 C 
ATOM     44  C   UNL     1      51.702  29.714  15.874  1.00  0.00     0.007 C 
ATOM     45  C   UNL     1      50.734  29.428  18.190  1.00  0.00     0.007 C 
ENDBRANCH  42  43
ENDBRANCH  21  42
ENDBRANCH   1  21
TORSDOF 16
ENDMDL
MODEL 8
REMARK VINA RESULT:    -8.365      4.075     11.186
REMARK INTER + INTRA:         -16.286
REMARK INTER:                 -14.877
REMARK INTRA:                  -1.408
REMARK UNBOUND:                -1.318
REMARK SMILES CC(C)C[C@H](N[P@](=O)(O)O[C@@H]1O[C@@H](C)[C@H](O)[C@@H](O)[C@H]1O)C(=O)N[C@@H](Cc1c[nH]c2ccccc12)C(=O)O
REMARK SMILES IDX 6 1 7 3 8 4 10 5 11 6 19 7 12 8 17 9 13 10 15 11 14 12 20 13
REMARK SMILES IDX 18 15 16 17 9 19 5 21 21 22 22 23 23 24 24 26 35 27 36 28
REMARK SMILES IDX 37 29 25 31 26 32 27 33 34 34 28 35 29 36 33 37 30 38 32 39
REMARK SMILES IDX 31 40 4 42 2 43 1 44 3 45
REMARK H PARENT 6 2 20 14 18 16 16 18 9 20 23 25 37 30 28 41
ROOT
ATOM      1  N   UNL     1      52.122  33.896  20.313  1.00  0.00    -0.210 NA
ATOM      2  H   UNL     1      53.139  33.760  20.414  1.00  0.00     0.135 HD
ENDROOT
BRANCH   1   3
ATOM      3  P   UNL     1      51.818  35.507  20.710  1.00  0.00     0.406 P 
ATOM      4  O   UNL     1      50.640  35.519  21.639  1.00  0.00    -0.241 OA
BRANCH   3   5
ATOM      5  O   UNL     1      53.092  35.993  21.485  1.00  0.00    -0.264 OA
BRANCH   5   6
ATOM      6  C   UNL     1      53.251  37.256  22.050  1.00  0.00     0.292 C 
ATOM      7  C   UNL     1      52.848  37.260  23.554  1.00  0.00     0.202 C 
ATOM      8  O   UNL     1      54.634  37.674  21.885  1.00  0.00    -0.344 OA
ATOM      9  C   UNL     1      53.848  36.410  24.380  1.00  0.00     0.179 C 
ATOM     10  C   UNL     1      55.587  36.888  22.627  1.00  0.00     0.150 C 
ATOM     11  C   UNL     1      55.291  36.938  24.139  1.00  0.00     0.174 C 
ATOM     12  C   UNL     1      56.979  37.408  22.339  1.00  0.00     0.041 C 
BRANCH   7  13
ATOM     13  O   UNL     1      52.796  38.587  24.038  1.00  0.00    -0.385 OA
ATOM     14  H   UNL     1      53.716  38.916  24.196  1.00  0.00     0.211 HD
ENDBRANCH   7  13
BRANCH   9  15
ATOM     15  O   UNL     1      53.473  36.427  25.781  1.00  0.00    -0.387 OA
ATOM     16  H   UNL     1      53.994  37.124  26.253  1.00  0.00     0.211 HD
ENDBRANCH   9  15
BRANCH  11  17
ATOM     17  O   UNL     1      56.240  36.105  24.850  1.00  0.00    -0.388 OA
ATOM     18  H   UNL     1      56.056  36.152  25.822  1.00  0.00     0.211 HD
ENDBRANCH  11  17
ENDBRANCH   5   6
ENDBRANCH   3   5
BRANCH   3  19
ATOM     19  O   UNL     1      51.696  36.284  19.497  1.00  0.00    -0.312 OA
ATOM     20  H   UNL     1      51.880  35.705  18.715  1.00  0.00     0.222 HD
ENDBRANCH   3  19
ENDBRANCH   1   3
BRANCH   1  21
ATOM     21  C   UNL     1      51.751  33.326  18.967  1.00  0.00     0.154 C 
BRANCH  21  22
ATOM     22  C   UNL     1      50.246  33.191  18.881  1.00  0.00     0.238 C 
ATOM     23  O   UNL     1      49.514  32.769  19.753  1.00  0.00    -0.273 OA
ATOM     24  N   UNL     1      49.654  33.613  17.602  1.00  0.00    -0.341 N 
ATOM     25  H   UNL     1      50.234  33.990  16.839  1.00  0.00     0.164 HD
BRANCH  24  26
ATOM     26  C   UNL     1      48.171  33.470  17.462  1.00  0.00     0.196 C 
BRANCH  26  27
ATOM     27  C   UNL     1      47.899  32.158  16.660  1.00  0.00     0.326 C 
ATOM     28  O   UNL     1      48.580  31.910  15.627  1.00  0.00    -0.250 OA
BRANCH  27  29
ATOM     29  O   UNL     1      47.017  31.417  17.082  1.00  0.00    -0.480 OA
ATOM     30  H   UNL     1      47.184  30.445  17.164  1.00  0.00     0.296 HD
ENDBRANCH  27  29
ENDBRANCH  26  27
BRANCH  26  31
ATOM     31  C   UNL     1      47.589  34.760  16.730  1.00  0.00     0.074 C 
BRANCH  31  32
ATOM     32  C   UNL     1      46.155  34.544  16.209  1.00  0.00    -0.020 A 
ATOM     33  C   UNL     1      45.006  34.487  16.963  1.00  0.00     0.087 A 
ATOM     34  C   UNL     1      45.756  34.364  14.837  1.00  0.00     0.003 A 
ATOM     35  N   UNL     1      43.910  34.284  16.144  1.00  0.00    -0.361 N 
ATOM     36  C   UNL     1      44.331  34.202  14.816  1.00  0.00     0.046 A 
ATOM     37  C   UNL     1      46.493  34.324  13.575  1.00  0.00     0.010 A 
ATOM     38  C   UNL     1      43.561  33.998  13.604  1.00  0.00     0.026 A 
ATOM     39  C   UNL     1      45.770  34.124  12.365  1.00  0.00     0.001 A 
ATOM     40  C   UNL     1      44.299  33.960  12.382  1.00  0.00     0.002 A 
ATOM     41  H   UNL     1      42.934  34.205  16.465  1.00  0.00     0.166 HD
ENDBRANCH  31  32
ENDBRANCH  26  31
ENDBRANCH  24  26
ENDBRANCH  21  22
BRANCH  21  42
ATOM     42  C   UNL     1      52.395  31.927  18.793  1.00  0.00     0.032 C 
BRANCH  42  43
ATOM     43  C   UNL     1      53.125  31.704  17.453  1.00  0.00    -0.015 C 
ATOM     44  C   UNL     1      52.489  30.462  16.832  1.00  0.00     0.007 C 
ATOM     45  C   UNL     1      54.655  31.463  17.662  1.00  0.00     0.007 C 
ENDBRANCH  42  43
ENDBRANCH  21  42
ENDBRANCH   1  21
TORSDOF 16
ENDMDL
MODEL 9
REMARK VINA RESULT:    -8.364      5.584      8.170
REMARK INTER + INTRA:         -16.283
REMARK INTER:                 -13.781
REMARK INTRA:                  -2.502
REMARK UNBOUND:                -1.318
REMARK SMILES CC(C)C[C@H](N[P@](=O)(O)O[C@@H]1O[C@@H](C)[C@H](O)[C@@H](O)[C@H]1O)C(=O)N[C@@H](Cc1c[nH]c2ccccc12)C(=O)O
REMARK SMILES IDX 6 1 7 3 8 4 10 5 11 6 19 7 12 8 17 9 13 10 15 11 14 12 20 13
REMARK SMILES IDX 18 15 16 17 9 19 5 21 21 22 22 23 23 24 24 26 35 27 36 28
REMARK SMILES IDX 37 29 25 31 26 32 27 33 34 34 28 35 29 36 33 37 30 38 32 39
REMARK SMILES IDX 31 40 4 42 2 43 1 44 3 45
REMARK H PARENT 6 2 20 14 18 16 16 18 9 20 23 25 37 30 28 41
ROOT
ATOM      1  N   UNL     1      48.884  32.640  16.962  1.00  0.00    -0.210 NA
ATOM      2  H   UNL     1      48.107  32.596  17.638  1.00  0.00     0.135 HD
ENDROOT
BRANCH   1   3
ATOM      3  P   UNL     1      49.059  34.264  16.545  1.00  0.00     0.406 P 
ATOM      4  O   UNL     1      50.500  34.477  16.187  1.00  0.00    -0.241 OA
BRANCH   3   5
ATOM      5  O   UNL     1      48.173  34.464  15.265  1.00  0.00    -0.264 OA
BRANCH   5   6
ATOM      6  C   UNL     1      47.291  35.521  15.060  1.00  0.00     0.292 C 
ATOM      7  C   UNL     1      46.780  35.558  13.590  1.00  0.00     0.202 C 
ATOM      8  O   UNL     1      46.181  35.393  15.991  1.00  0.00    -0.344 OA
ATOM      9  C   UNL     1      45.880  34.328  13.303  1.00  0.00     0.179 C 
ATOM     10  C   UNL     1      45.338  34.246  15.759  1.00  0.00     0.150 C 
ATOM     11  C   UNL     1      44.726  34.284  14.345  1.00  0.00     0.174 C 
ATOM     12  C   UNL     1      44.251  34.218  16.811  1.00  0.00     0.041 C 
BRANCH   7  13
ATOM     13  O   UNL     1      46.078  36.761  13.351  1.00  0.00    -0.385 OA
ATOM     14  H   UNL     1      46.715  37.519  13.349  1.00  0.00     0.211 HD
ENDBRANCH   7  13
BRANCH   9  15
ATOM     15  O   UNL     1      45.399  34.374  11.937  1.00  0.00    -0.387 OA
ATOM     16  H   UNL     1      46.166  34.471  11.319  1.00  0.00     0.211 HD
ENDBRANCH   9  15
BRANCH  11  17
ATOM     17  O   UNL     1      43.920  33.098  14.130  1.00  0.00    -0.388 OA
ATOM     18  H   UNL     1      43.918  32.870  13.166  1.00  0.00     0.211 HD
ENDBRANCH  11  17
ENDBRANCH   5   6
ENDBRANCH   3   5
BRANCH   3  19
ATOM     19  O   UNL     1      48.525  35.090  17.604  1.00  0.00    -0.312 OA
ATOM     20  H   UNL     1      48.819  36.026  17.472  1.00  0.00     0.222 HD
ENDBRANCH   3  19
ENDBRANCH   1   3
BRANCH   1  21
ATOM     21  C   UNL     1      50.016  31.848  17.566  1.00  0.00     0.154 C 
BRANCH  21  22
ATOM     22  C   UNL     1      50.534  32.574  18.790  1.00  0.00     0.238 C 
ATOM     23  O   UNL     1      50.005  32.603  19.882  1.00  0.00    -0.273 OA
ATOM     24  N   UNL     1      51.792  33.309  18.592  1.00  0.00    -0.341 N 
ATOM     25  H   UNL     1      52.283  33.302  17.687  1.00  0.00     0.164 HD
BRANCH  24  26
ATOM     26  C   UNL     1      52.326  34.066  19.767  1.00  0.00     0.196 C 
BRANCH  26  27
ATOM     27  C   UNL     1      51.420  35.323  19.967  1.00  0.00     0.326 C 
ATOM     28  O   UNL     1      51.040  35.635  21.129  1.00  0.00    -0.250 OA
BRANCH  27  29
ATOM     29  O   UNL     1      51.116  35.958  18.963  1.00  0.00    -0.480 OA
ATOM     30  H   UNL     1      51.513  36.851  18.802  1.00  0.00     0.296 HD
ENDBRANCH  27  29
ENDBRANCH  26  27
BRANCH  26  31
ATOM     31  C   UNL     1      53.847  34.454  19.491  1.00  0.00     0.074 C 
BRANCH  31  32
ATOM     32  C   UNL     1      54.551  33.445  18.562  1.00  0.00    -0.020 A 
ATOM     33  C   UNL     1      55.324  32.374  18.947  1.00  0.00     0.087 A 
ATOM     34  C   UNL     1      54.527  33.439  17.122  1.00  0.00     0.003 A 
ATOM     35  N   UNL     1      55.784  31.696  17.832  1.00  0.00    -0.361 N 
ATOM     36  C   UNL     1      55.312  32.323  16.678  1.00  0.00     0.046 A 
ATOM     37  C   UNL     1      53.893  34.301  16.126  1.00  0.00     0.010 A 
ATOM     38  C   UNL     1      55.519  31.989  15.282  1.00  0.00     0.026 A 
ATOM     39  C   UNL     1      54.076  34.004  14.746  1.00  0.00     0.001 A 
ATOM     40  C   UNL     1      54.892  32.844  14.325  1.00  0.00     0.002 A 
ATOM     41  H   UNL     1      56.381  30.857  17.850  1.00  0.00     0.166 HD
ENDBRANCH  31  32
ENDBRANCH  26  31
ENDBRANCH  24  26
ENDBRANCH  21  22
BRANCH  21  42
ATOM     42  C   UNL     1      51.167  31.706  16.538  1.00  0.00     0.032 C 
BRANCH  42  43
ATOM     43  C   UNL     1      51.636  30.261  16.277  1.00  0.00    -0.015 C 
ATOM     44  C   UNL     1      52.640  29.940  17.382  1.00  0.00     0.007 C 
ATOM     45  C   UNL     1      52.327  30.121  14.882  1.00  0.00     0.007 C 
ENDBRANCH  42  43
ENDBRANCH  21  42
ENDBRANCH   1  21
TORSDOF 16
ENDMDL
MODEL 10
REMARK VINA RESULT:    -8.329      6.451      9.726
REMARK INTER + INTRA:         -16.220
REMARK INTER:                 -13.375
REMARK INTRA:                  -2.846
REMARK UNBOUND:                -1.318
REMARK SMILES CC(C)C[C@H](N[P@](=O)(O)O[C@@H]1O[C@@H](C)[C@H](O)[C@@H](O)[C@H]1O)C(=O)N[C@@H](Cc1c[nH]c2ccccc12)C(=O)O
REMARK SMILES IDX 6 1 7 3 8 4 10 5 11 6 19 7 12 8 17 9 13 10 15 11 14 12 20 13
REMARK SMILES IDX 18 15 16 17 9 19 5 21 21 22 22 23 23 24 24 26 35 27 36 28
REMARK SMILES IDX 37 29 25 31 26 32 27 33 34 34 28 35 29 36 33 37 30 38 32 39
REMARK SMILES IDX 31 40 4 42 2 43 1 44 3 45
REMARK H PARENT 6 2 20 14 18 16 16 18 9 20 23 25 37 30 28 41
ROOT
ATOM      1  N   UNL     1      49.463  35.700  15.197  1.00  0.00    -0.210 NA
ATOM      2  H   UNL     1      50.087  35.777  14.382  1.00  0.00     0.135 HD
ENDROOT
BRANCH   1   3
ATOM      3  P   UNL     1      48.018  36.451  14.760  1.00  0.00     0.406 P 
ATOM      4  O   UNL     1      48.376  37.679  13.977  1.00  0.00    -0.241 OA
BRANCH   3   5
ATOM      5  O   UNL     1      47.286  35.432  13.818  1.00  0.00    -0.264 OA
BRANCH   5   6
ATOM      6  C   UNL     1      45.918  35.421  13.560  1.00  0.00     0.292 C 
ATOM      7  C   UNL     1      45.549  34.350  12.492  1.00  0.00     0.202 C 
ATOM      8  O   UNL     1      45.208  35.176  14.805  1.00  0.00    -0.344 OA
ATOM      9  C   UNL     1      45.782  32.925  13.059  1.00  0.00     0.179 C 
ATOM     10  C   UNL     1      45.421  33.864  15.364  1.00  0.00     0.150 C 
ATOM     11  C   UNL     1      44.979  32.762  14.381  1.00  0.00     0.174 C 
ATOM     12  C   UNL     1      44.655  33.757  16.665  1.00  0.00     0.041 C 
BRANCH   7  13
ATOM     13  O   UNL     1      44.207  34.516  12.083  1.00  0.00    -0.385 OA
ATOM     14  H   UNL     1      43.699  33.688  12.275  1.00  0.00     0.211 HD
ENDBRANCH   7  13
BRANCH   9  15
ATOM     15  O   UNL     1      45.426  31.932  12.064  1.00  0.00    -0.387 OA
ATOM     16  H   UNL     1      45.678  31.032  12.390  1.00  0.00     0.211 HD
ENDBRANCH   9  15
BRANCH  11  17
ATOM     17  O   UNL     1      45.246  31.459  14.957  1.00  0.00    -0.388 OA
ATOM     18  H   UNL     1      44.564  31.257  15.646  1.00  0.00     0.211 HD
ENDBRANCH  11  17
ENDBRANCH   5   6
ENDBRANCH   3   5
BRANCH   3  19
ATOM     19  O   UNL     1      47.205  36.648  15.939  1.00  0.00    -0.312 OA
ATOM     20  H   UNL     1      47.375  37.550  16.310  1.00  0.00     0.222 HD
ENDBRANCH   3  19
ENDBRANCH   1   3
BRANCH   1  21
ATOM     21  C   UNL     1      49.508  34.255  15.630  1.00  0.00     0.154 C 
BRANCH  21  22
ATOM     22  C   UNL     1      49.300  34.178  17.128  1.00  0.00     0.238 C 
ATOM     23  O   UNL     1      48.231  34.123  17.700  1.00  0.00    -0.273 OA
ATOM     24  N   UNL     1      50.533  34.181  17.929  1.00  0.00    -0.341 N 
ATOM     25  H   UNL     1      51.463  34.213  17.487  1.00  0.00     0.164 HD
BRANCH  24  26
ATOM     26  C   UNL     1      50.374  34.135  19.416  1.00  0.00     0.196 C 
BRANCH  26  27
ATOM     27  C   UNL     1      51.027  35.429  19.999  1.00  0.00     0.326 C 
ATOM     28  O   UNL     1      51.052  35.603  21.248  1.00  0.00    -0.250 OA
BRANCH  27  29
ATOM     29  O   UNL     1      51.493  36.230  19.196  1.00  0.00    -0.480 OA
ATOM     30  H   UNL     1      51.239  37.186  19.245  1.00  0.00     0.296 HD
ENDBRANCH  27  29
ENDBRANCH  26  27
BRANCH  26  31
ATOM     31  C   UNL     1      51.058  32.807  19.973  1.00  0.00     0.074 C 
BRANCH  31  32
ATOM     32  C   UNL     1      51.961  32.127  18.926  1.00  0.00    -0.020 A 
ATOM     33  C   UNL     1      53.163  32.596  18.450  1.00  0.00     0.087 A 
ATOM     34  C   UNL     1      51.712  30.876  18.258  1.00  0.00     0.003 A 
ATOM     35  N   UNL     1      53.684  31.710  17.523  1.00  0.00    -0.361 N 
ATOM     36  C   UNL     1      52.815  30.628  17.373  1.00  0.00     0.046 A 
ATOM     37  C   UNL     1      50.624  29.903  18.323  1.00  0.00     0.010 A 
ATOM     38  C   UNL     1      52.921  29.456  16.527  1.00  0.00     0.026 A 
ATOM     39  C   UNL     1      50.693  28.740  17.504  1.00  0.00     0.001 A 
ATOM     40  C   UNL     1      51.846  28.518  16.604  1.00  0.00     0.002 A 
ATOM     41  H   UNL     1      54.575  31.831  17.020  1.00  0.00     0.166 HD
ENDBRANCH  31  32
ENDBRANCH  26  31
ENDBRANCH  24  26
ENDBRANCH  21  22
BRANCH  21  42
ATOM     42  C   UNL     1      50.889  33.645  15.279  1.00  0.00     0.032 C 
BRANCH  42  43
ATOM     43  C   UNL     1      50.854  32.499  14.248  1.00  0.00    -0.015 C 
ATOM     44  C   UNL     1      50.032  31.383  14.890  1.00  0.00     0.007 C 
ATOM     45  C   UNL     1      52.289  31.974  13.920  1.00  0.00     0.007 C 
ENDBRANCH  42  43
ENDBRANCH  21  42
ENDBRANCH   1  21
TORSDOF 16
ENDMDL
MODEL 11
REMARK VINA RESULT:    -8.313      7.277     10.818
REMARK INTER + INTRA:         -16.192
REMARK INTER:                 -14.016
REMARK INTRA:                  -2.176
REMARK UNBOUND:                -1.318
REMARK SMILES CC(C)C[C@H](N[P@](=O)(O)O[C@@H]1O[C@@H](C)[C@H](O)[C@@H](O)[C@H]1O)C(=O)N[C@@H](Cc1c[nH]c2ccccc12)C(=O)O
REMARK SMILES IDX 6 1 7 3 8 4 10 5 11 6 19 7 12 8 17 9 13 10 15 11 14 12 20 13
REMARK SMILES IDX 18 15 16 17 9 19 5 21 21 22 22 23 23 24 24 26 35 27 36 28
REMARK SMILES IDX 37 29 25 31 26 32 27 33 34 34 28 35 29 36 33 37 30 38 32 39
REMARK SMILES IDX 31 40 4 42 2 43 1 44 3 45
REMARK H PARENT 6 2 20 14 18 16 16 18 9 20 23 25 37 30 28 41
ROOT
ATOM      1  N   UNL     1      49.002  32.974  17.156  1.00  0.00    -0.210 NA
ATOM      2  H   UNL     1      48.588  33.135  18.085  1.00  0.00     0.135 HD
ENDROOT
BRANCH   1   3
ATOM      3  P   UNL     1      49.201  34.495  16.455  1.00  0.00     0.406 P 
ATOM      4  O   UNL     1      50.591  34.546  15.894  1.00  0.00    -0.241 OA
BRANCH   3   5
ATOM      5  O   UNL     1      48.166  34.549  15.277  1.00  0.00    -0.264 OA
BRANCH   5   6
ATOM      6  C   UNL     1      47.266  35.586  15.051  1.00  0.00     0.292 C 
ATOM      7  C   UNL     1      46.765  35.593  13.577  1.00  0.00     0.202 C 
ATOM      8  O   UNL     1      46.151  35.450  15.975  1.00  0.00    -0.344 OA
ATOM      9  C   UNL     1      45.891  34.342  13.301  1.00  0.00     0.179 C 
ATOM     10  C   UNL     1      45.332  34.285  15.753  1.00  0.00     0.150 C 
ATOM     11  C   UNL     1      44.729  34.290  14.334  1.00  0.00     0.174 C 
ATOM     12  C   UNL     1      44.238  34.250  16.797  1.00  0.00     0.041 C 
BRANCH   7  13
ATOM     13  O   UNL     1      46.042  36.779  13.316  1.00  0.00    -0.385 OA
ATOM     14  H   UNL     1      45.201  36.555  12.845  1.00  0.00     0.211 HD
ENDBRANCH   7  13
BRANCH   9  15
ATOM     15  O   UNL     1      45.419  34.360  11.930  1.00  0.00    -0.387 OA
ATOM     16  H   UNL     1      44.434  34.459  11.921  1.00  0.00     0.211 HD
ENDBRANCH   9  15
BRANCH  11  17
ATOM     17  O   UNL     1      43.948  33.087  14.131  1.00  0.00    -0.388 OA
ATOM     18  H   UNL     1      43.238  33.263  13.463  1.00  0.00     0.211 HD
ENDBRANCH  11  17
ENDBRANCH   5   6
ENDBRANCH   3   5
BRANCH   3  19
ATOM     19  O   UNL     1      48.852  35.514  17.418  1.00  0.00    -0.312 OA
ATOM     20  H   UNL     1      49.652  36.058  17.628  1.00  0.00     0.222 HD
ENDBRANCH   3  19
ENDBRANCH   1   3
BRANCH   1  21
ATOM     21  C   UNL     1      50.166  32.039  17.369  1.00  0.00     0.154 C 
BRANCH  21  22
ATOM     22  C   UNL     1      49.921  30.756  16.602  1.00  0.00     0.238 C 
ATOM     23  O   UNL     1      50.300  30.512  15.475  1.00  0.00    -0.273 OA
ATOM     24  N   UNL     1      49.138  29.741  17.322  1.00  0.00    -0.341 N 
ATOM     25  H   UNL     1      48.806  29.898  18.284  1.00  0.00     0.164 HD
BRANCH  24  26
ATOM     26  C   UNL     1      48.845  28.468  16.591  1.00  0.00     0.196 C 
BRANCH  26  27
ATOM     27  C   UNL     1      47.302  28.401  16.362  1.00  0.00     0.326 C 
ATOM     28  O   UNL     1      46.823  27.497  15.624  1.00  0.00    -0.250 OA
BRANCH  27  29
ATOM     29  O   UNL     1      46.617  29.250  16.922  1.00  0.00    -0.480 OA
ATOM     30  H   UNL     1      47.018  30.119  17.179  1.00  0.00     0.296 HD
ENDBRANCH  27  29
ENDBRANCH  26  27
BRANCH  26  31
ATOM     31  C   UNL     1      49.385  27.238  17.450  1.00  0.00     0.074 C 
BRANCH  31  32
ATOM     32  C   UNL     1      50.924  27.161  17.466  1.00  0.00    -0.020 A 
ATOM     33  C   UNL     1      51.769  27.386  16.404  1.00  0.00     0.087 A 
ATOM     34  C   UNL     1      51.758  26.843  18.596  1.00  0.00     0.003 A 
ATOM     35  N   UNL     1      53.084  27.229  16.803  1.00  0.00    -0.361 N 
ATOM     36  C   UNL     1      53.123  26.893  18.157  1.00  0.00     0.046 A 
ATOM     37  C   UNL     1      51.473  26.510  19.990  1.00  0.00     0.010 A 
ATOM     38  C   UNL     1      54.257  26.629  19.021  1.00  0.00     0.026 A 
ATOM     39  C   UNL     1      52.562  26.243  20.868  1.00  0.00     0.001 A 
ATOM     40  C   UNL     1      53.958  26.303  20.380  1.00  0.00     0.002 A 
ATOM     41  H   UNL     1      53.908  27.343  16.195  1.00  0.00     0.166 HD
ENDBRANCH  31  32
ENDBRANCH  26  31
ENDBRANCH  24  26
ENDBRANCH  21  22
BRANCH  21  42
ATOM     42  C   UNL     1      50.307  31.708  18.876  1.00  0.00     0.032 C 
BRANCH  42  43
ATOM     43  C   UNL     1      51.273  32.619  19.658  1.00  0.00    -0.015 C 
ATOM     44  C   UNL     1      50.399  33.679  20.326  1.00  0.00     0.007 C 
ATOM     45  C   UNL     1      52.308  33.311  18.713  1.00  0.00     0.007 C 
ENDBRANCH  42  43
ENDBRANCH  21  42
ENDBRANCH   1  21
TORSDOF 16
ENDMDL
MODEL 12
REMARK VINA RESULT:    -8.219      7.099     10.705
REMARK INTER + INTRA:         -16.024
REMARK INTER:                 -13.357
REMARK INTRA:                  -2.666
REMARK UNBOUND:                -1.318
REMARK SMILES CC(C)C[C@H](N[P@](=O)(O)O[C@@H]1O[C@@H](C)[C@H](O)[C@@H](O)[C@H]1O)C(=O)N[C@@H](Cc1c[nH]c2ccccc12)C(=O)O
REMARK SMILES IDX 6 1 7 3 8 4 10 5 11 6 19 7 12 8 17 9 13 10 15 11 14 12 20 13
REMARK SMILES IDX 18 15 16 17 9 19 5 21 21 22 22 23 23 24 24 26 35 27 36 28
REMARK SMILES IDX 37 29 25 31 26 32 27 33 34 34 28 35 29 36 33 37 30 38 32 39
REMARK SMILES IDX 31 40 4 42 2 43 1 44 3 45
REMARK H PARENT 6 2 20 14 18 16 16 18 9 20 23 25 37 30 28 41
ROOT
ATOM      1  N   UNL     1      45.872  35.095  16.696  1.00  0.00    -0.210 NA
ATOM      2  H   UNL     1      45.673  36.079  16.466  1.00  0.00     0.135 HD
ENDROOT
BRANCH   1   3
ATOM      3  P   UNL     1      44.582  34.197  16.086  1.00  0.00     0.406 P 
ATOM      4  O   UNL     1      43.807  35.099  15.171  1.00  0.00    -0.241 OA
BRANCH   3   5
ATOM      5  O   UNL     1      45.236  33.045  15.244  1.00  0.00    -0.264 OA
BRANCH   5   6
ATOM      6  C   UNL     1      45.130  32.906  13.863  1.00  0.00     0.292 C 
ATOM      7  C   UNL     1      46.483  33.209  13.155  1.00  0.00     0.202 C 
ATOM      8  O   UNL     1      44.680  31.556  13.560  1.00  0.00    -0.344 OA
ATOM      9  C   UNL     1      47.530  32.121  13.509  1.00  0.00     0.179 C 
ATOM     10  C   UNL     1      45.626  30.523  13.897  1.00  0.00     0.150 C 
ATOM     11  C   UNL     1      46.957  30.721  13.145  1.00  0.00     0.174 C 
ATOM     12  C   UNL     1      45.020  29.177  13.563  1.00  0.00     0.041 C 
BRANCH   7  13
ATOM     13  O   UNL     1      46.292  33.288  11.757  1.00  0.00    -0.385 OA
ATOM     14  H   UNL     1      46.988  33.871  11.362  1.00  0.00     0.211 HD
ENDBRANCH   7  13
BRANCH   9  15
ATOM     15  O   UNL     1      48.784  32.403  12.839  1.00  0.00    -0.387 OA
ATOM     16  H   UNL     1      48.703  33.247  12.328  1.00  0.00     0.211 HD
ENDBRANCH   9  15
BRANCH  11  17
ATOM     17  O   UNL     1      47.898  29.691  13.538  1.00  0.00    -0.388 OA
ATOM     18  H   UNL     1      47.481  28.801  13.420  1.00  0.00     0.211 HD
ENDBRANCH  11  17
ENDBRANCH   5   6
ENDBRANCH   3   5
BRANCH   3  19
ATOM     19  O   UNL     1      43.851  33.603  17.182  1.00  0.00    -0.312 OA
ATOM     20  H   UNL     1      44.226  33.924  18.041  1.00  0.00     0.222 HD
ENDBRANCH   3  19
ENDBRANCH   1   3
BRANCH   1  21
ATOM     21  C   UNL     1      47.294  34.838  16.263  1.00  0.00     0.154 C 
BRANCH  21  22
ATOM     22  C   UNL     1      48.043  34.159  17.391  1.00  0.00     0.238 C 
ATOM     23  O   UNL     1      47.555  33.454  18.251  1.00  0.00    -0.273 OA
ATOM     24  N   UNL     1      49.491  34.410  17.417  1.00  0.00    -0.341 N 
ATOM     25  H   UNL     1      49.950  34.991  16.701  1.00  0.00     0.164 HD
BRANCH  24  26
ATOM     26  C   UNL     1      50.267  33.783  18.532  1.00  0.00     0.196 C 
BRANCH  26  27
ATOM     27  C   UNL     1      50.769  34.933  19.461  1.00  0.00     0.326 C 
ATOM     28  O   UNL     1      50.729  34.782  20.713  1.00  0.00    -0.250 OA
BRANCH  27  29
ATOM     29  O   UNL     1      51.186  35.950  18.916  1.00  0.00    -0.480 OA
ATOM     30  H   UNL     1      51.935  36.457  19.320  1.00  0.00     0.296 HD
ENDBRANCH  27  29
ENDBRANCH  26  27
BRANCH  26  31
ATOM     31  C   UNL     1      51.467  32.932  17.918  1.00  0.00     0.074 C 
BRANCH  31  32
ATOM     32  C   UNL     1      50.974  31.794  17.003  1.00  0.00    -0.020 A 
ATOM     33  C   UNL     1      50.751  31.867  15.648  1.00  0.00     0.087 A 
ATOM     34  C   UNL     1      50.658  30.447  17.400  1.00  0.00     0.003 A 
ATOM     35  N   UNL     1      50.316  30.644  15.171  1.00  0.00    -0.361 N 
ATOM     36  C   UNL     1      50.244  29.732  16.226  1.00  0.00     0.046 A 
ATOM     37  C   UNL     1      50.686  29.746  18.683  1.00  0.00     0.010 A 
ATOM     38  C   UNL     1      49.846  28.338  16.230  1.00  0.00     0.026 A 
ATOM     39  C   UNL     1      50.300  28.376  18.724  1.00  0.00     0.001 A 
ATOM     40  C   UNL     1      49.879  27.672  17.493  1.00  0.00     0.002 A 
ATOM     41  H   UNL     1      50.081  30.437  14.190  1.00  0.00     0.166 HD
ENDBRANCH  31  32
ENDBRANCH  26  31
ENDBRANCH  24  26
ENDBRANCH  21  22
BRANCH  21  42
ATOM     42  C   UNL     1      47.993  36.181  15.929  1.00  0.00     0.032 C 
BRANCH  42  43
ATOM     43  C   UNL     1      48.202  36.453  14.426  1.00  0.00    -0.015 C 
ATOM     44  C   UNL     1      48.945  37.784  14.342  1.00  0.00     0.007 C 
ATOM     45  C   UNL     1      46.841  36.561  13.664  1.00  0.00     0.007 C 
ENDBRANCH  42  43
ENDBRANCH  21  42
ENDBRANCH   1  21
TORSDOF 16
ENDMDL
MODEL 13
REMARK VINA RESULT:    -8.163      6.796      9.893
REMARK INTER + INTRA:         -15.924
REMARK INTER:                 -13.439
REMARK INTRA:                  -2.485
REMARK UNBOUND:                -1.318
REMARK SMILES CC(C)C[C@H](N[P@](=O)(O)O[C@@H]1O[C@@H](C)[C@H](O)[C@@H](O)[C@H]1O)C(=O)N[C@@H](Cc1c[nH]c2ccccc12)C(=O)O
REMARK SMILES IDX 6 1 7 3 8 4 10 5 11 6 19 7 12 8 17 9 13 10 15 11 14 12 20 13
REMARK SMILES IDX 18 15 16 17 9 19 5 21 21 22 22 23 23 24 24 26 35 27 36 28
REMARK SMILES IDX 37 29 25 31 26 32 27 33 34 34 28 35 29 36 33 37 30 38 32 39
REMARK SMILES IDX 31 40 4 42 2 43 1 44 3 45
REMARK H PARENT 6 2 20 14 18 16 16 18 9 20 23 25 37 30 28 41
ROOT
ATOM      1  N   UNL     1      46.055  35.166  16.584  1.00  0.00    -0.210 NA
ATOM      2  H   UNL     1      46.091  36.095  16.140  1.00  0.00     0.135 HD
ENDROOT
BRANCH   1   3
ATOM      3  P   UNL     1      44.613  34.454  16.077  1.00  0.00     0.406 P 
ATOM      4  O   UNL     1      43.521  35.460  16.295  1.00  0.00    -0.241 OA
BRANCH   3   5
ATOM      5  O   UNL     1      44.788  34.207  14.537  1.00  0.00    -0.264 OA
BRANCH   5   6
ATOM      6  C   UNL     1      44.363  33.070  13.856  1.00  0.00     0.292 C 
ATOM      7  C   UNL     1      44.330  33.308  12.318  1.00  0.00     0.202 C 
ATOM      8  O   UNL     1      45.247  31.965  14.189  1.00  0.00    -0.344 OA
ATOM      9  C   UNL     1      45.770  33.491  11.772  1.00  0.00     0.179 C 
ATOM     10  C   UNL     1      46.598  32.117  13.710  1.00  0.00     0.150 C 
ATOM     11  C   UNL     1      46.631  32.259  12.176  1.00  0.00     0.174 C 
ATOM     12  C   UNL     1      47.411  30.920  14.153  1.00  0.00     0.041 C 
BRANCH   7  13
ATOM     13  O   UNL     1      43.681  32.230  11.674  1.00  0.00    -0.385 OA
ATOM     14  H   UNL     1      43.711  32.366  10.694  1.00  0.00     0.211 HD
ENDBRANCH   7  13
BRANCH   9  15
ATOM     15  O   UNL     1      45.734  33.701  10.338  1.00  0.00    -0.387 OA
ATOM     16  H   UNL     1      44.900  33.316   9.969  1.00  0.00     0.211 HD
ENDBRANCH   9  15
BRANCH  11  17
ATOM     17  O   UNL     1      47.998  32.452  11.733  1.00  0.00    -0.388 OA
ATOM     18  H   UNL     1      48.537  32.819  12.478  1.00  0.00     0.211 HD
ENDBRANCH  11  17
ENDBRANCH   5   6
ENDBRANCH   3   5
BRANCH   3  19
ATOM     19  O   UNL     1      44.455  33.174  16.730  1.00  0.00    -0.312 OA
ATOM     20  H   UNL     1      43.494  33.007  16.899  1.00  0.00     0.222 HD
ENDBRANCH   3  19
ENDBRANCH   1   3
BRANCH   1  21
ATOM     21  C   UNL     1      47.393  34.521  16.326  1.00  0.00     0.154 C 
BRANCH  21  22
ATOM     22  C   UNL     1      47.837  33.779  17.570  1.00  0.00     0.238 C 
ATOM     23  O   UNL     1      47.173  32.984  18.204  1.00  0.00    -0.273 OA
ATOM     24  N   UNL     1      49.201  34.086  18.025  1.00  0.00    -0.341 N 
ATOM     25  H   UNL     1      49.805  34.744  17.512  1.00  0.00     0.164 HD
BRANCH  24  26
ATOM     26  C   UNL     1      49.671  33.398  19.268  1.00  0.00     0.196 C 
BRANCH  26  27
ATOM     27  C   UNL     1      50.587  34.399  20.042  1.00  0.00     0.326 C 
ATOM     28  O   UNL     1      50.952  35.467  19.480  1.00  0.00    -0.250 OA
BRANCH  27  29
ATOM     29  O   UNL     1      50.913  34.089  21.183  1.00  0.00    -0.480 OA
ATOM     30  H   UNL     1      51.752  33.586  21.338  1.00  0.00     0.296 HD
ENDBRANCH  27  29
ENDBRANCH  26  27
BRANCH  26  31
ATOM     31  C   UNL     1      50.439  32.060  18.865  1.00  0.00     0.074 C 
BRANCH  31  32
ATOM     32  C   UNL     1      51.646  32.330  17.946  1.00  0.00    -0.020 A 
ATOM     33  C   UNL     1      52.932  32.616  18.341  1.00  0.00     0.087 A 
ATOM     34  C   UNL     1      51.648  32.328  16.506  1.00  0.00     0.003 A 
ATOM     35  N   UNL     1      53.741  32.793  17.233  1.00  0.00    -0.361 N 
ATOM     36  C   UNL     1      52.984  32.622  16.072  1.00  0.00     0.046 A 
ATOM     37  C   UNL     1      50.612  32.097  15.502  1.00  0.00     0.010 A 
ATOM     38  C   UNL     1      53.379  32.706  14.680  1.00  0.00     0.026 A 
ATOM     39  C   UNL     1      50.963  32.172  14.124  1.00  0.00     0.001 A 
ATOM     40  C   UNL     1      52.351  32.478  13.714  1.00  0.00     0.002 A 
ATOM     41  H   UNL     1      54.746  33.015  17.259  1.00  0.00     0.166 HD
ENDBRANCH  31  32
ENDBRANCH  26  31
ENDBRANCH  24  26
ENDBRANCH  21  22
BRANCH  21  42
ATOM     42  C   UNL     1      48.444  35.607  15.984  1.00  0.00     0.032 C 
BRANCH  42  43
ATOM     43  C   UNL     1      47.982  36.666  14.964  1.00  0.00    -0.015 C 
ATOM     44  C   UNL     1      47.454  35.886  13.761  1.00  0.00     0.007 C 
ATOM     45  C   UNL     1      49.160  37.590  14.515  1.00  0.00     0.007 C 
ENDBRANCH  42  43
ENDBRANCH  21  42
ENDBRANCH   1  21
TORSDOF 16
ENDMDL
MODEL 14
REMARK VINA RESULT:    -8.106      6.652      9.787
REMARK INTER + INTRA:         -15.822
REMARK INTER:                 -13.278
REMARK INTRA:                  -2.544
REMARK UNBOUND:                -1.318
REMARK SMILES CC(C)C[C@H](N[P@](=O)(O)O[C@@H]1O[C@@H](C)[C@H](O)[C@@H](O)[C@H]1O)C(=O)N[C@@H](Cc1c[nH]c2ccccc12)C(=O)O
REMARK SMILES IDX 6 1 7 3 8 4 10 5 11 6 19 7 12 8 17 9 13 10 15 11 14 12 20 13
REMARK SMILES IDX 18 15 16 17 9 19 5 21 21 22 22 23 23 24 24 26 35 27 36 28
REMARK SMILES IDX 37 29 25 31 26 32 27 33 34 34 28 35 29 36 33 37 30 38 32 39
REMARK SMILES IDX 31 40 4 42 2 43 1 44 3 45
REMARK H PARENT 6 2 20 14 18 16 16 18 9 20 23 25 37 30 28 41
ROOT
ATOM      1  N   UNL     1      45.795  35.111  16.547  1.00  0.00    -0.210 NA
ATOM      2  H   UNL     1      45.647  36.056  16.162  1.00  0.00     0.135 HD
ENDROOT
BRANCH   1   3
ATOM      3  P   UNL     1      44.539  34.156  15.953  1.00  0.00     0.406 P 
ATOM      4  O   UNL     1      43.792  34.981  14.946  1.00  0.00    -0.241 OA
BRANCH   3   5
ATOM      5  O   UNL     1      45.236  32.956  15.222  1.00  0.00    -0.264 OA
BRANCH   5   6
ATOM      6  C   UNL     1      45.133  32.679  13.862  1.00  0.00     0.292 C 
ATOM      7  C   UNL     1      46.398  33.155  13.088  1.00  0.00     0.202 C 
ATOM      8  O   UNL     1      44.928  31.251  13.687  1.00  0.00    -0.344 OA
ATOM      9  C   UNL     1      47.629  32.305  13.496  1.00  0.00     0.179 C 
ATOM     10  C   UNL     1      46.050  30.435  14.077  1.00  0.00     0.150 C 
ATOM     11  C   UNL     1      47.310  30.800  13.269  1.00  0.00     0.174 C 
ATOM     12  C   UNL     1      45.690  28.979  13.876  1.00  0.00     0.041 C 
BRANCH   7  13
ATOM     13  O   UNL     1      46.172  33.076  11.695  1.00  0.00    -0.385 OA
ATOM     14  H   UNL     1      46.106  33.990  11.320  1.00  0.00     0.211 HD
ENDBRANCH   7  13
BRANCH   9  15
ATOM     15  O   UNL     1      48.800  32.746  12.764  1.00  0.00    -0.387 OA
ATOM     16  H   UNL     1      49.398  33.252  13.370  1.00  0.00     0.211 HD
ENDBRANCH   9  15
BRANCH  11  17
ATOM     17  O   UNL     1      48.428  29.992  13.715  1.00  0.00    -0.388 OA
ATOM     18  H   UNL     1      48.761  30.338  14.580  1.00  0.00     0.211 HD
ENDBRANCH  11  17
ENDBRANCH   5   6
ENDBRANCH   3   5
BRANCH   3  19
ATOM     19  O   UNL     1      43.771  33.633  17.060  1.00  0.00    -0.312 OA
ATOM     20  H   UNL     1      44.378  33.182  17.699  1.00  0.00     0.222 HD
ENDBRANCH   3  19
ENDBRANCH   1   3
BRANCH   1  21
ATOM     21  C   UNL     1      47.242  34.771  16.290  1.00  0.00     0.154 C 
BRANCH  21  22
ATOM     22  C   UNL     1      47.824  34.110  17.521  1.00  0.00     0.238 C 
ATOM     23  O   UNL     1      47.233  33.375  18.286  1.00  0.00    -0.273 OA
ATOM     24  N   UNL     1      49.237  34.419  17.785  1.00  0.00    -0.341 N 
ATOM     25  H   UNL     1      49.782  35.025  17.157  1.00  0.00     0.164 HD
BRANCH  24  26
ATOM     26  C   UNL     1      49.846  33.809  19.009  1.00  0.00     0.196 C 
BRANCH  26  27
ATOM     27  C   UNL     1      50.955  34.785  19.517  1.00  0.00     0.326 C 
ATOM     28  O   UNL     1      51.773  34.392  20.393  1.00  0.00    -0.250 OA
BRANCH  27  29
ATOM     29  O   UNL     1      50.976  35.910  19.029  1.00  0.00    -0.480 OA
ATOM     30  H   UNL     1      51.697  36.163  18.399  1.00  0.00     0.296 HD
ENDBRANCH  27  29
ENDBRANCH  26  27
BRANCH  26  31
ATOM     31  C   UNL     1      50.426  32.370  18.642  1.00  0.00     0.074 C 
BRANCH  31  32
ATOM     32  C   UNL     1      50.850  32.267  17.164  1.00  0.00    -0.020 A 
ATOM     33  C   UNL     1      50.155  31.649  16.151  1.00  0.00     0.087 A 
ATOM     34  C   UNL     1      52.051  32.800  16.574  1.00  0.00     0.003 A 
ATOM     35  N   UNL     1      50.849  31.765  14.959  1.00  0.00    -0.361 N 
ATOM     36  C   UNL     1      52.032  32.474  15.177  1.00  0.00     0.046 A 
ATOM     37  C   UNL     1      53.184  33.551  17.111  1.00  0.00     0.010 A 
ATOM     38  C   UNL     1      53.080  32.847  14.248  1.00  0.00     0.026 A 
ATOM     39  C   UNL     1      54.233  33.935  16.228  1.00  0.00     0.001 A 
ATOM     40  C   UNL     1      54.179  33.580  14.792  1.00  0.00     0.002 A 
ATOM     41  H   UNL     1      50.541  31.388  14.052  1.00  0.00     0.166 HD
ENDBRANCH  31  32
ENDBRANCH  26  31
ENDBRANCH  24  26
ENDBRANCH  21  22
BRANCH  21  42
ATOM     42  C   UNL     1      48.040  36.064  15.986  1.00  0.00     0.032 C 
BRANCH  42  43
ATOM     43  C   UNL     1      48.257  36.362  14.489  1.00  0.00    -0.015 C 
ATOM     44  C   UNL     1      48.935  37.730  14.429  1.00  0.00     0.007 C 
ATOM     45  C   UNL     1      46.904  36.411  13.708  1.00  0.00     0.007 C 
ENDBRANCH  42  43
ENDBRANCH  21  42
ENDBRANCH   1  21
TORSDOF 16
ENDMDL
MODEL 15
REMARK VINA RESULT:    -8.017      1.609      2.096
REMARK INTER + INTRA:         -15.662
REMARK INTER:                 -15.071
REMARK INTRA:                  -0.591
REMARK UNBOUND:                -1.318
REMARK SMILES CC(C)C[C@H](N[P@](=O)(O)O[C@@H]1O[C@@H](C)[C@H](O)[C@@H](O)[C@H]1O)C(=O)N[C@@H](Cc1c[nH]c2ccccc12)C(=O)O
REMARK SMILES IDX 6 1 7 3 8 4 10 5 11 6 19 7 12 8 17 9 13 10 15 11 14 12 20 13
REMARK SMILES IDX 18 15 16 17 9 19 5 21 21 22 22 23 23 24 24 26 35 27 36 28
REMARK SMILES IDX 37 29 25 31 26 32 27 33 34 34 28 35 29 36 33 37 30 38 32 39
REMARK SMILES IDX 31 40 4 42 2 43 1 44 3 45
REMARK H PARENT 6 2 20 14 18 16 16 18 9 20 23 25 37 30 28 41
ROOT
ATOM      1  N   UNL     1      52.613  37.222  21.184  1.00  0.00    -0.210 NA
ATOM      2  H   UNL     1      52.976  37.551  20.277  1.00  0.00     0.135 HD
ENDROOT
BRANCH   1   3
ATOM      3  P   UNL     1      52.087  35.639  20.938  1.00  0.00     0.406 P 
ATOM      4  O   UNL     1      50.728  35.521  21.564  1.00  0.00    -0.241 OA
BRANCH   3   5
ATOM      5  O   UNL     1      51.955  35.480  19.383  1.00  0.00    -0.264 OA
BRANCH   5   6
ATOM      6  C   UNL     1      52.088  34.281  18.688  1.00  0.00     0.292 C 
ATOM      7  C   UNL     1      51.148  33.182  19.265  1.00  0.00     0.202 C 
ATOM      8  O   UNL     1      51.803  34.519  17.282  1.00  0.00    -0.344 OA
ATOM      9  C   UNL     1      49.665  33.548  18.994  1.00  0.00     0.179 C 
ATOM     10  C   UNL     1      50.435  34.880  17.004  1.00  0.00     0.150 C 
ATOM     11  C   UNL     1      49.464  33.777  17.469  1.00  0.00     0.174 C 
ATOM     12  C   UNL     1      50.287  35.129  15.518  1.00  0.00     0.041 C 
BRANCH   7  13
ATOM     13  O   UNL     1      51.467  31.926  18.701  1.00  0.00    -0.385 OA
ATOM     14  H   UNL     1      50.789  31.260  18.975  1.00  0.00     0.211 HD
ENDBRANCH   7  13
BRANCH   9  15
ATOM     15  O   UNL     1      48.796  32.515  19.524  1.00  0.00    -0.387 OA
ATOM     16  H   UNL     1      49.332  31.713  19.745  1.00  0.00     0.211 HD
ENDBRANCH   9  15
BRANCH  11  17
ATOM     17  O   UNL     1      48.098  34.189  17.213  1.00  0.00    -0.388 OA
ATOM     18  H   UNL     1      47.968  35.117  17.533  1.00  0.00     0.211 HD
ENDBRANCH  11  17
ENDBRANCH   5   6
ENDBRANCH   3   5
BRANCH   3  19
ATOM     19  O   UNL     1      53.099  34.720  21.408  1.00  0.00    -0.312 OA
ATOM     20  H   UNL     1      53.437  34.184  20.647  1.00  0.00     0.222 HD
ENDBRANCH   3  19
ENDBRANCH   1   3
BRANCH   1  21
ATOM     21  C   UNL     1      53.667  37.560  22.209  1.00  0.00     0.154 C 
BRANCH  21  22
ATOM     22  C   UNL     1      55.033  37.228  21.645  1.00  0.00     0.238 C 
ATOM     23  O   UNL     1      55.256  36.580  20.643  1.00  0.00    -0.273 OA
ATOM     24  N   UNL     1      56.169  37.749  22.420  1.00  0.00    -0.341 N 
ATOM     25  H   UNL     1      56.028  38.315  23.269  1.00  0.00     0.164 HD
BRANCH  24  26
ATOM     26  C   UNL     1      57.539  37.421  21.916  1.00  0.00     0.196 C 
BRANCH  26  27
ATOM     27  C   UNL     1      58.265  36.600  23.029  1.00  0.00     0.326 C 
ATOM     28  O   UNL     1      59.520  36.476  22.990  1.00  0.00    -0.250 OA
BRANCH  27  29
ATOM     29  O   UNL     1      57.564  36.105  23.905  1.00  0.00    -0.480 OA
ATOM     30  H   UNL     1      57.835  35.255  24.335  1.00  0.00     0.296 HD
ENDBRANCH  27  29
ENDBRANCH  26  27
BRANCH  26  31
ATOM     31  C   UNL     1      58.304  38.774  21.564  1.00  0.00     0.074 C 
BRANCH  31  32
ATOM     32  C   UNL     1      59.129  38.663  20.267  1.00  0.00    -0.020 A 
ATOM     33  C   UNL     1      59.001  37.702  19.291  1.00  0.00     0.087 A 
ATOM     34  C   UNL     1      60.181  39.547  19.838  1.00  0.00     0.003 A 
ATOM     35  N   UNL     1      59.911  37.933  18.275  1.00  0.00    -0.361 N 
ATOM     36  C   UNL     1      60.664  39.070  18.574  1.00  0.00     0.046 A 
ATOM     37  C   UNL     1      60.787  40.743  20.421  1.00  0.00     0.010 A 
ATOM     38  C   UNL     1      61.730  39.706  17.826  1.00  0.00     0.026 A 
ATOM     39  C   UNL     1      61.837  41.395  19.714  1.00  0.00     0.001 A 
ATOM     40  C   UNL     1      62.309  40.873  18.413  1.00  0.00     0.002 A 
ATOM     41  H   UNL     1      60.017  37.355  17.429  1.00  0.00     0.166 HD
ENDBRANCH  31  32
ENDBRANCH  26  31
ENDBRANCH  24  26
ENDBRANCH  21  22
BRANCH  21  42
ATOM     42  C   UNL     1      53.435  36.728  23.496  1.00  0.00     0.032 C 
BRANCH  42  43
ATOM     43  C   UNL     1      53.825  37.434  24.810  1.00  0.00    -0.015 C 
ATOM     44  C   UNL     1      54.283  36.328  25.758  1.00  0.00     0.007 C 
ATOM     45  C   UNL     1      52.612  38.195  25.437  1.00  0.00     0.007 C 
ENDBRANCH  42  43
ENDBRANCH  21  42
ENDBRANCH   1  21
TORSDOF 16
ENDMDL
MODEL 16
REMARK VINA RESULT:    -7.982      3.653      7.340
REMARK INTER + INTRA:         -15.600
REMARK INTER:                 -13.487
REMARK INTRA:                  -2.113
REMARK UNBOUND:                -1.318
REMARK SMILES CC(C)C[C@H](N[P@](=O)(O)O[C@@H]1O[C@@H](C)[C@H](O)[C@@H](O)[C@H]1O)C(=O)N[C@@H](Cc1c[nH]c2ccccc12)C(=O)O
REMARK SMILES IDX 6 1 7 3 8 4 10 5 11 6 19 7 12 8 17 9 13 10 15 11 14 12 20 13
REMARK SMILES IDX 18 15 16 17 9 19 5 21 21 22 22 23 23 24 24 26 35 27 36 28
REMARK SMILES IDX 37 29 25 31 26 32 27 33 34 34 28 35 29 36 33 37 30 38 32 39
REMARK SMILES IDX 31 40 4 42 2 43 1 44 3 45
REMARK H PARENT 6 2 20 14 18 16 16 18 9 20 23 25 37 30 28 41
ROOT
ATOM      1  N   UNL     1      50.109  31.067  16.530  1.00  0.00    -0.210 NA
ATOM      2  H   UNL     1      50.916  30.736  15.981  1.00  0.00     0.135 HD
ENDROOT
BRANCH   1   3
ATOM      3  P   UNL     1      48.732  30.570  15.693  1.00  0.00     0.406 P 
ATOM      4  O   UNL     1      48.047  29.539  16.541  1.00  0.00    -0.241 OA
BRANCH   3   5
ATOM      5  O   UNL     1      47.821  31.844  15.593  1.00  0.00    -0.264 OA
BRANCH   5   6
ATOM      6  C   UNL     1      47.545  32.713  16.644  1.00  0.00     0.292 C 
ATOM      7  C   UNL     1      48.503  33.940  16.633  1.00  0.00     0.202 C 
ATOM      8  O   UNL     1      46.158  33.139  16.549  1.00  0.00    -0.344 OA
ATOM      9  C   UNL     1      48.220  34.832  15.396  1.00  0.00     0.179 C 
ATOM     10  C   UNL     1      45.862  33.953  15.397  1.00  0.00     0.150 C 
ATOM     11  C   UNL     1      46.717  35.236  15.388  1.00  0.00     0.174 C 
ATOM     12  C   UNL     1      44.388  34.296  15.405  1.00  0.00     0.041 C 
BRANCH   7  13
ATOM     13  O   UNL     1      48.357  34.680  17.829  1.00  0.00    -0.385 OA
ATOM     14  H   UNL     1      47.529  35.220  17.783  1.00  0.00     0.211 HD
ENDBRANCH   7  13
BRANCH   9  15
ATOM     15  O   UNL     1      49.107  35.978  15.397  1.00  0.00    -0.387 OA
ATOM     16  H   UNL     1      49.397  36.170  16.324  1.00  0.00     0.211 HD
ENDBRANCH   9  15
BRANCH  11  17
ATOM     17  O   UNL     1      46.426  36.009  14.197  1.00  0.00    -0.388 OA
ATOM     18  H   UNL     1      46.546  36.972  14.392  1.00  0.00     0.211 HD
ENDBRANCH  11  17
ENDBRANCH   5   6
ENDBRANCH   3   5
BRANCH   3  19
ATOM     19  O   UNL     1      49.103  30.166  14.356  1.00  0.00    -0.312 OA
ATOM     20  H   UNL     1      49.927  30.644  14.085  1.00  0.00     0.222 HD
ENDBRANCH   3  19
ENDBRANCH   1   3
BRANCH   1  21
ATOM     21  C   UNL     1      50.367  30.650  17.956  1.00  0.00     0.154 C 
BRANCH  21  22
ATOM     22  C   UNL     1      50.510  31.887  18.818  1.00  0.00     0.238 C 
ATOM     23  O   UNL     1      49.669  32.337  19.569  1.00  0.00    -0.273 OA
ATOM     24  N   UNL     1      51.799  32.584  18.697  1.00  0.00    -0.341 N 
ATOM     25  H   UNL     1      52.547  32.233  18.082  1.00  0.00     0.164 HD
BRANCH  24  26
ATOM     26  C   UNL     1      51.974  33.829  19.509  1.00  0.00     0.196 C 
BRANCH  26  27
ATOM     27  C   UNL     1      51.645  35.044  18.584  1.00  0.00     0.326 C 
ATOM     28  O   UNL     1      52.125  35.085  17.419  1.00  0.00    -0.250 OA
BRANCH  27  29
ATOM     29  O   UNL     1      50.921  35.919  19.048  1.00  0.00    -0.480 OA
ATOM     30  H   UNL     1      49.937  35.846  18.958  1.00  0.00     0.296 HD
ENDBRANCH  27  29
ENDBRANCH  26  27
BRANCH  26  31
ATOM     31  C   UNL     1      53.465  33.881  20.071  1.00  0.00     0.074 C 
BRANCH  31  32
ATOM     32  C   UNL     1      53.742  35.159  20.886  1.00  0.00    -0.020 A 
ATOM     33  C   UNL     1      52.920  35.723  21.834  1.00  0.00     0.087 A 
ATOM     34  C   UNL     1      54.913  35.993  20.806  1.00  0.00     0.003 A 
ATOM     35  N   UNL     1      53.509  36.862  22.355  1.00  0.00    -0.361 N 
ATOM     36  C   UNL     1      54.747  37.066  21.745  1.00  0.00     0.046 A 
ATOM     37  C   UNL     1      56.132  35.936  20.003  1.00  0.00     0.010 A 
ATOM     38  C   UNL     1      55.728  38.114  21.951  1.00  0.00     0.026 A 
ATOM     39  C   UNL     1      57.117  36.950  20.178  1.00  0.00     0.001 A 
ATOM     40  C   UNL     1      56.912  38.041  21.155  1.00  0.00     0.002 A 
ATOM     41  H   UNL     1      53.097  37.466  23.080  1.00  0.00     0.166 HD
ENDBRANCH  31  32
ENDBRANCH  26  31
ENDBRANCH  24  26
ENDBRANCH  21  22
BRANCH  21  42
ATOM     42  C   UNL     1      51.676  29.825  18.035  1.00  0.00     0.032 C 
BRANCH  42  43
ATOM     43  C   UNL     1      51.570  28.503  18.820  1.00  0.00    -0.015 C 
ATOM     44  C   UNL     1      52.766  27.659  18.382  1.00  0.00     0.007 C 
ATOM     45  C   UNL     1      50.243  27.743  18.495  1.00  0.00     0.007 C 
ENDBRANCH  42  43
ENDBRANCH  21  42
ENDBRANCH   1  21
TORSDOF 16
ENDMDL
MODEL 17
REMARK VINA RESULT:    -7.918      6.825     10.151
REMARK INTER + INTRA:         -15.485
REMARK INTER:                 -13.212
REMARK INTRA:                  -2.274
REMARK UNBOUND:                -1.318
REMARK SMILES CC(C)C[C@H](N[P@](=O)(O)O[C@@H]1O[C@@H](C)[C@H](O)[C@@H](O)[C@H]1O)C(=O)N[C@@H](Cc1c[nH]c2ccccc12)C(=O)O
REMARK SMILES IDX 6 1 7 3 8 4 10 5 11 6 19 7 12 8 17 9 13 10 15 11 14 12 20 13
REMARK SMILES IDX 18 15 16 17 9 19 5 21 21 22 22 23 23 24 24 26 35 27 36 28
REMARK SMILES IDX 37 29 25 31 26 32 27 33 34 34 28 35 29 36 33 37 30 38 32 39
REMARK SMILES IDX 31 40 4 42 2 43 1 44 3 45
REMARK H PARENT 6 2 20 14 18 16 16 18 9 20 23 25 37 30 28 41
ROOT
ATOM      1  N   UNL     1      46.065  34.878  16.878  1.00  0.00    -0.210 NA
ATOM      2  H   UNL     1      45.856  35.885  16.930  1.00  0.00     0.135 HD
ENDROOT
BRANCH   1   3
ATOM      3  P   UNL     1      44.747  34.160  16.110  1.00  0.00     0.406 P 
ATOM      4  O   UNL     1      43.798  35.260  15.736  1.00  0.00    -0.241 OA
BRANCH   3   5
ATOM      5  O   UNL     1      45.326  33.512  14.804  1.00  0.00    -0.264 OA
BRANCH   5   6
ATOM      6  C   UNL     1      45.396  32.144  14.553  1.00  0.00     0.292 C 
ATOM      7  C   UNL     1      45.141  31.829  13.050  1.00  0.00     0.202 C 
ATOM      8  O   UNL     1      46.702  31.657  14.968  1.00  0.00    -0.344 OA
ATOM      9  C   UNL     1      46.303  32.376  12.181  1.00  0.00     0.179 C 
ATOM     10  C   UNL     1      47.803  32.165  14.189  1.00  0.00     0.150 C 
ATOM     11  C   UNL     1      47.649  31.794  12.701  1.00  0.00     0.174 C 
ATOM     12  C   UNL     1      49.095  31.606  14.747  1.00  0.00     0.041 C 
BRANCH   7  13
ATOM     13  O   UNL     1      44.988  30.436  12.866  1.00  0.00    -0.385 OA
ATOM     14  H   UNL     1      44.143  30.259  12.381  1.00  0.00     0.211 HD
ENDBRANCH   7  13
BRANCH   9  15
ATOM     15  O   UNL     1      46.065  32.069  10.784  1.00  0.00    -0.387 OA
ATOM     16  H   UNL     1      45.095  31.935  10.636  1.00  0.00     0.211 HD
ENDBRANCH   9  15
BRANCH  11  17
ATOM     17  O   UNL     1      48.749  32.355  11.942  1.00  0.00    -0.388 OA
ATOM     18  H   UNL     1      48.440  32.574  11.026  1.00  0.00     0.211 HD
ENDBRANCH  11  17
ENDBRANCH   5   6
ENDBRANCH   3   5
BRANCH   3  19
ATOM     19  O   UNL     1      44.220  33.106  16.948  1.00  0.00    -0.312 OA
ATOM     20  H   UNL     1      44.803  32.993  17.741  1.00  0.00     0.222 HD
ENDBRANCH   3  19
ENDBRANCH   1   3
BRANCH   1  21
ATOM     21  C   UNL     1      47.464  34.763  16.327  1.00  0.00     0.154 C 
BRANCH  21  22
ATOM     22  C   UNL     1      48.363  34.140  17.375  1.00  0.00     0.238 C 
ATOM     23  O   UNL     1      47.999  33.492  18.335  1.00  0.00    -0.273 OA
ATOM     24  N   UNL     1      49.801  34.372  17.180  1.00  0.00    -0.341 N 
ATOM     25  H   UNL     1      50.157  34.905  16.373  1.00  0.00     0.164 HD
BRANCH  24  26
ATOM     26  C   UNL     1      50.725  33.799  18.208  1.00  0.00     0.196 C 
BRANCH  26  27
ATOM     27  C   UNL     1      51.503  34.988  18.857  1.00  0.00     0.326 C 
ATOM     28  O   UNL     1      52.749  34.894  19.030  1.00  0.00    -0.250 OA
BRANCH  27  29
ATOM     29  O   UNL     1      50.849  35.976  19.174  1.00  0.00    -0.480 OA
ATOM     30  H   UNL     1      50.938  36.357  20.084  1.00  0.00     0.296 HD
ENDBRANCH  27  29
ENDBRANCH  26  27
BRANCH  26  31
ATOM     31  C   UNL     1      51.698  32.748  17.508  1.00  0.00     0.074 C 
BRANCH  31  32
ATOM     32  C   UNL     1      51.391  31.296  17.923  1.00  0.00    -0.020 A 
ATOM     33  C   UNL     1      50.214  30.825  18.458  1.00  0.00     0.087 A 
ATOM     34  C   UNL     1      52.279  30.167  17.824  1.00  0.00     0.003 A 
ATOM     35  N   UNL     1      50.312  29.466  18.699  1.00  0.00    -0.361 N 
ATOM     36  C   UNL     1      51.578  29.016  18.318  1.00  0.00     0.046 A 
ATOM     37  C   UNL     1      53.651  30.009  17.345  1.00  0.00     0.010 A 
ATOM     38  C   UNL     1      52.152  27.686  18.375  1.00  0.00     0.026 A 
ATOM     39  C   UNL     1      54.248  28.717  17.387  1.00  0.00     0.001 A 
ATOM     40  C   UNL     1      53.494  27.553  17.905  1.00  0.00     0.002 A 
ATOM     41  H   UNL     1      49.567  28.877  19.097  1.00  0.00     0.166 HD
ENDBRANCH  31  32
ENDBRANCH  26  31
ENDBRANCH  24  26
ENDBRANCH  21  22
BRANCH  21  42
ATOM     42  C   UNL     1      48.006  36.171  15.970  1.00  0.00     0.032 C 
BRANCH  42  43
ATOM     43  C   UNL     1      48.215  36.429  14.464  1.00  0.00    -0.015 C 
ATOM     44  C   UNL     1      48.736  37.860  14.354  1.00  0.00     0.007 C 
ATOM     45  C   UNL     1      46.879  36.293  13.665  1.00  0.00     0.007 C 
ENDBRANCH  42  43
ENDBRANCH  21  42
ENDBRANCH   1  21
TORSDOF 16
ENDMDL
MODEL 18
REMARK VINA RESULT:    -7.879      2.566      8.921
REMARK INTER + INTRA:         -15.415
REMARK INTER:                 -14.424
REMARK INTRA:                  -0.991
REMARK UNBOUND:                -1.318
REMARK SMILES CC(C)C[C@H](N[P@](=O)(O)O[C@@H]1O[C@@H](C)[C@H](O)[C@@H](O)[C@H]1O)C(=O)N[C@@H](Cc1c[nH]c2ccccc12)C(=O)O
REMARK SMILES IDX 6 1 7 3 8 4 10 5 11 6 19 7 12 8 17 9 13 10 15 11 14 12 20 13
REMARK SMILES IDX 18 15 16 17 9 19 5 21 21 22 22 23 23 24 24 26 35 27 36 28
REMARK SMILES IDX 37 29 25 31 26 32 27 33 34 34 28 35 29 36 33 37 30 38 32 39
REMARK SMILES IDX 31 40 4 42 2 43 1 44 3 45
REMARK H PARENT 6 2 20 14 18 16 16 18 9 20 23 25 37 30 28 41
ROOT
ATOM      1  N   UNL     1      55.226  36.601  23.220  1.00  0.00    -0.210 NA
ATOM      2  H   UNL     1      55.496  35.608  23.270  1.00  0.00     0.135 HD
ENDROOT
BRANCH   1   3
ATOM      3  P   UNL     1      56.031  37.244  21.886  1.00  0.00     0.406 P 
ATOM      4  O   UNL     1      56.006  38.737  22.030  1.00  0.00    -0.241 OA
BRANCH   3   5
ATOM      5  O   UNL     1      57.511  36.738  22.008  1.00  0.00    -0.264 OA
BRANCH   5   6
ATOM      6  C   UNL     1      58.305  36.323  20.942  1.00  0.00     0.292 C 
ATOM      7  C   UNL     1      58.829  37.536  20.118  1.00  0.00     0.202 C 
ATOM      8  O   UNL     1      59.411  35.534  21.460  1.00  0.00    -0.344 OA
ATOM      9  C   UNL     1      59.831  38.366  20.962  1.00  0.00     0.179 C 
ATOM     10  C   UNL     1      60.348  36.277  22.264  1.00  0.00     0.150 C 
ATOM     11  C   UNL     1      60.973  37.435  21.463  1.00  0.00     0.174 C 
ATOM     12  C   UNL     1      61.422  35.332  22.761  1.00  0.00     0.041 C 
BRANCH   7  13
ATOM     13  O   UNL     1      59.431  37.085  18.922  1.00  0.00    -0.385 OA
ATOM     14  H   UNL     1      59.206  36.132  18.779  1.00  0.00     0.211 HD
ENDBRANCH   7  13
BRANCH   9  15
ATOM     15  O   UNL     1      60.324  39.487  20.186  1.00  0.00    -0.387 OA
ATOM     16  H   UNL     1      59.876  39.499  19.303  1.00  0.00     0.211 HD
ENDBRANCH   9  15
BRANCH  11  17
ATOM     17  O   UNL     1      61.877  38.185  22.312  1.00  0.00    -0.388 OA
ATOM     18  H   UNL     1      62.776  37.770  22.285  1.00  0.00     0.211 HD
ENDBRANCH  11  17
ENDBRANCH   5   6
ENDBRANCH   3   5
BRANCH   3  19
ATOM     19  O   UNL     1      55.460  36.700  20.674  1.00  0.00    -0.312 OA
ATOM     20  H   UNL     1      54.762  37.314  20.334  1.00  0.00     0.222 HD
ENDBRANCH   3  19
ENDBRANCH   1   3
BRANCH   1  21
ATOM     21  C   UNL     1      53.722  36.636  23.334  1.00  0.00     0.154 C 
BRANCH  21  22
ATOM     22  C   UNL     1      53.114  36.416  21.965  1.00  0.00     0.238 C 
ATOM     23  O   UNL     1      52.530  37.248  21.299  1.00  0.00    -0.273 OA
ATOM     24  N   UNL     1      53.256  35.054  21.431  1.00  0.00    -0.341 N 
ATOM     25  H   UNL     1      53.754  34.319  21.954  1.00  0.00     0.164 HD
BRANCH  24  26
ATOM     26  C   UNL     1      52.644  34.783  20.093  1.00  0.00     0.196 C 
BRANCH  26  27
ATOM     27  C   UNL     1      51.118  34.533  20.315  1.00  0.00     0.326 C 
ATOM     28  O   UNL     1      50.281  35.091  19.555  1.00  0.00    -0.250 OA
BRANCH  27  29
ATOM     29  O   UNL     1      50.803  33.792  21.241  1.00  0.00    -0.480 OA
ATOM     30  H   UNL     1      50.417  34.172  22.070  1.00  0.00     0.296 HD
ENDBRANCH  27  29
ENDBRANCH  26  27
BRANCH  26  31
ATOM     31  C   UNL     1      53.373  33.530  19.429  1.00  0.00     0.074 C 
BRANCH  31  32
ATOM     32  C   UNL     1      52.826  33.208  18.025  1.00  0.00    -0.020 A 
ATOM     33  C   UNL     1      53.165  33.832  16.847  1.00  0.00     0.087 A 
ATOM     34  C   UNL     1      51.862  32.192  17.690  1.00  0.00     0.003 A 
ATOM     35  N   UNL     1      52.471  33.266  15.793  1.00  0.00    -0.361 N 
ATOM     36  C   UNL     1      51.650  32.244  16.271  1.00  0.00     0.046 A 
ATOM     37  C   UNL     1      51.128  31.206  18.480  1.00  0.00     0.010 A 
ATOM     38  C   UNL     1      50.742  31.366  15.560  1.00  0.00     0.026 A 
ATOM     39  C   UNL     1      50.226  30.327  17.815  1.00  0.00     0.001 A 
ATOM     40  C   UNL     1      50.034  30.410  16.350  1.00  0.00     0.002 A 
ATOM     41  H   UNL     1      52.548  33.555  14.807  1.00  0.00     0.166 HD
ENDBRANCH  31  32
ENDBRANCH  26  31
ENDBRANCH  24  26
ENDBRANCH  21  22
BRANCH  21  42
ATOM     42  C   UNL     1      53.267  38.016  23.873  1.00  0.00     0.032 C 
BRANCH  42  43
ATOM     43  C   UNL     1      53.553  38.261  25.368  1.00  0.00    -0.015 C 
ATOM     44  C   UNL     1      53.463  36.892  26.040  1.00  0.00     0.007 C 
ATOM     45  C   UNL     1      52.506  39.229  26.006  1.00  0.00     0.007 C 
ENDBRANCH  42  43
ENDBRANCH  21  42
ENDBRANCH   1  21
TORSDOF 16
ENDMDL
MODEL 19
REMARK VINA RESULT:    -7.847      5.657     10.176
REMARK INTER + INTRA:         -15.358
REMARK INTER:                 -12.888
REMARK INTRA:                  -2.470
REMARK UNBOUND:                -1.318
REMARK SMILES CC(C)C[C@H](N[P@](=O)(O)O[C@@H]1O[C@@H](C)[C@H](O)[C@@H](O)[C@H]1O)C(=O)N[C@@H](Cc1c[nH]c2ccccc12)C(=O)O
REMARK SMILES IDX 6 1 7 3 8 4 10 5 11 6 19 7 12 8 17 9 13 10 15 11 14 12 20 13
REMARK SMILES IDX 18 15 16 17 9 19 5 21 21 22 22 23 23 24 24 26 35 27 36 28
REMARK SMILES IDX 37 29 25 31 26 32 27 33 34 34 28 35 29 36 33 37 30 38 32 39
REMARK SMILES IDX 31 40 4 42 2 43 1 44 3 45
REMARK H PARENT 6 2 20 14 18 16 16 18 9 20 23 25 37 30 28 41
ROOT
ATOM      1  N   UNL     1      49.944  34.555  18.539  1.00  0.00    -0.210 NA
ATOM      2  H   UNL     1      49.566  35.458  18.863  1.00  0.00     0.135 HD
ENDROOT
BRANCH   1   3
ATOM      3  P   UNL     1      50.570  33.787  19.903  1.00  0.00     0.406 P 
ATOM      4  O   UNL     1      49.800  32.513  20.087  1.00  0.00    -0.241 OA
BRANCH   3   5
ATOM      5  O   UNL     1      52.058  33.443  19.542  1.00  0.00    -0.264 OA
BRANCH   5   6
ATOM      6  C   UNL     1      53.071  34.379  19.353  1.00  0.00     0.292 C 
ATOM      7  C   UNL     1      54.468  33.778  19.685  1.00  0.00     0.202 C 
ATOM      8  O   UNL     1      53.025  34.850  17.978  1.00  0.00    -0.344 OA
ATOM      9  C   UNL     1      54.842  32.685  18.650  1.00  0.00     0.179 C 
ATOM     10  C   UNL     1      53.349  33.849  16.994  1.00  0.00     0.150 C 
ATOM     11  C   UNL     1      54.767  33.288  17.218  1.00  0.00     0.174 C 
ATOM     12  C   UNL     1      53.231  34.462  15.615  1.00  0.00     0.041 C 
BRANCH   7  13
ATOM     13  O   UNL     1      55.443  34.801  19.710  1.00  0.00    -0.385 OA
ATOM     14  H   UNL     1      56.342  34.402  19.599  1.00  0.00     0.211 HD
ENDBRANCH   7  13
BRANCH   9  15
ATOM     15  O   UNL     1      56.149  32.137  18.958  1.00  0.00    -0.387 OA
ATOM     16  H   UNL     1      56.418  32.416  19.869  1.00  0.00     0.211 HD
ENDBRANCH   9  15
BRANCH  11  17
ATOM     17  O   UNL     1      55.045  32.256  16.239  1.00  0.00    -0.388 OA
ATOM     18  H   UNL     1      54.392  31.519  16.342  1.00  0.00     0.211 HD
ENDBRANCH  11  17
ENDBRANCH   5   6
ENDBRANCH   3   5
BRANCH   3  19
ATOM     19  O   UNL     1      50.570  34.711  21.015  1.00  0.00    -0.312 OA
ATOM     20  H   UNL     1      49.647  34.813  21.359  1.00  0.00     0.222 HD
ENDBRANCH   3  19
ENDBRANCH   1   3
BRANCH   1  21
ATOM     21  C   UNL     1      48.864  33.923  17.696  1.00  0.00     0.154 C 
BRANCH  21  22
ATOM     22  C   UNL     1      49.450  32.757  16.929  1.00  0.00     0.238 C 
ATOM     23  O   UNL     1      50.166  32.831  15.951  1.00  0.00    -0.273 OA
ATOM     24  N   UNL     1      49.088  31.428  17.443  1.00  0.00    -0.341 N 
ATOM     25  H   UNL     1      48.494  31.316  18.277  1.00  0.00     0.164 HD
BRANCH  24  26
ATOM     26  C   UNL     1      49.621  30.245  16.698  1.00  0.00     0.196 C 
BRANCH  26  27
ATOM     27  C   UNL     1      48.578  29.874  15.596  1.00  0.00     0.326 C 
ATOM     28  O   UNL     1      47.638  29.081  15.873  1.00  0.00    -0.250 OA
BRANCH  27  29
ATOM     29  O   UNL     1      48.729  30.383  14.490  1.00  0.00    -0.480 OA
ATOM     30  H   UNL     1      48.969  31.341  14.415  1.00  0.00     0.296 HD
ENDBRANCH  27  29
ENDBRANCH  26  27
BRANCH  26  31
ATOM     31  C   UNL     1      49.870  29.050  17.724  1.00  0.00     0.074 C 
BRANCH  31  32
ATOM     32  C   UNL     1      51.356  28.652  17.813  1.00  0.00    -0.020 A 
ATOM     33  C   UNL     1      52.369  29.067  16.981  1.00  0.00     0.087 A 
ATOM     34  C   UNL     1      51.954  27.775  18.785  1.00  0.00     0.003 A 
ATOM     35  N   UNL     1      53.569  28.502  17.376  1.00  0.00    -0.361 N 
ATOM     36  C   UNL     1      53.357  27.693  18.493  1.00  0.00     0.046 A 
ATOM     37  C   UNL     1      51.422  27.021  19.919  1.00  0.00     0.010 A 
ATOM     38  C   UNL     1      54.295  26.899  19.263  1.00  0.00     0.026 A 
ATOM     39  C   UNL     1      52.313  26.229  20.697  1.00  0.00     0.001 A 
ATOM     40  C   UNL     1      53.754  26.169  20.365  1.00  0.00     0.002 A 
ATOM     41  H   UNL     1      54.478  28.655  16.917  1.00  0.00     0.166 HD
ENDBRANCH  31  32
ENDBRANCH  26  31
ENDBRANCH  24  26
ENDBRANCH  21  22
BRANCH  21  42
ATOM     42  C   UNL     1      48.307  34.961  16.690  1.00  0.00     0.032 C 
BRANCH  42  43
ATOM     43  C   UNL     1      47.161  34.453  15.793  1.00  0.00    -0.015 C 
ATOM     44  C   UNL     1      47.301  35.203  14.470  1.00  0.00     0.007 C 
ATOM     45  C   UNL     1      45.760  34.751  16.420  1.00  0.00     0.007 C 
ENDBRANCH  42  43
ENDBRANCH  21  42
ENDBRANCH   1  21
TORSDOF 16
ENDMDL
MODEL 20
REMARK VINA RESULT:    -7.844      2.756      8.055
REMARK INTER + INTRA:         -15.352
REMARK INTER:                 -13.432
REMARK INTRA:                  -1.920
REMARK UNBOUND:                -1.318
REMARK SMILES CC(C)C[C@H](N[P@](=O)(O)O[C@@H]1O[C@@H](C)[C@H](O)[C@@H](O)[C@H]1O)C(=O)N[C@@H](Cc1c[nH]c2ccccc12)C(=O)O
REMARK SMILES IDX 6 1 7 3 8 4 10 5 11 6 19 7 12 8 17 9 13 10 15 11 14 12 20 13
REMARK SMILES IDX 18 15 16 17 9 19 5 21 21 22 22 23 23 24 24 26 35 27 36 28
REMARK SMILES IDX 37 29 25 31 26 32 27 33 34 34 28 35 29 36 33 37 30 38 32 39
REMARK SMILES IDX 31 40 4 42 2 43 1 44 3 45
REMARK H PARENT 6 2 20 14 18 16 16 18 9 20 23 25 37 30 28 41
ROOT
ATOM      1  N   UNL     1      55.483  36.579  23.311  1.00  0.00    -0.210 NA
ATOM      2  H   UNL     1      55.724  35.581  23.232  1.00  0.00     0.135 HD
ENDROOT
BRANCH   1   3
ATOM      3  P   UNL     1      56.385  37.380  22.133  1.00  0.00     0.406 P 
ATOM      4  O   UNL     1      57.727  37.682  22.733  1.00  0.00    -0.241 OA
BRANCH   3   5
ATOM      5  O   UNL     1      56.563  36.344  20.967  1.00  0.00    -0.264 OA
BRANCH   5   6
ATOM      6  C   UNL     1      56.593  36.663  19.613  1.00  0.00     0.292 C 
ATOM      7  C   UNL     1      57.916  37.388  19.229  1.00  0.00     0.202 C 
ATOM      8  O   UNL     1      56.429  35.443  18.839  1.00  0.00    -0.344 OA
ATOM      9  C   UNL     1      59.118  36.415  19.358  1.00  0.00     0.179 C 
ATOM     10  C   UNL     1      57.523  34.512  18.956  1.00  0.00     0.150 C 
ATOM     11  C   UNL     1      58.848  35.150  18.494  1.00  0.00     0.174 C 
ATOM     12  C   UNL     1      57.209  33.282  18.132  1.00  0.00     0.041 C 
BRANCH   7  13
ATOM     13  O   UNL     1      57.824  37.902  17.916  1.00  0.00    -0.385 OA
ATOM     14  H   UNL     1      58.734  38.056  17.558  1.00  0.00     0.211 HD
ENDBRANCH   7  13
BRANCH   9  15
ATOM     15  O   UNL     1      60.345  37.093  18.989  1.00  0.00    -0.387 OA
ATOM     16  H   UNL     1      61.107  36.467  19.076  1.00  0.00     0.211 HD
ENDBRANCH   9  15
BRANCH  11  17
ATOM     17  O   UNL     1      59.932  34.203  18.663  1.00  0.00    -0.388 OA
ATOM     18  H   UNL     1      59.682  33.535  19.350  1.00  0.00     0.211 HD
ENDBRANCH  11  17
ENDBRANCH   5   6
ENDBRANCH   3   5
BRANCH   3  19
ATOM     19  O   UNL     1      55.630  38.506  21.634  1.00  0.00    -0.312 OA
ATOM     20  H   UNL     1      55.829  38.637  20.673  1.00  0.00     0.222 HD
ENDBRANCH   3  19
ENDBRANCH   1   3
BRANCH   1  21
ATOM     21  C   UNL     1      53.976  36.648  23.341  1.00  0.00     0.154 C 
BRANCH  21  22
ATOM     22  C   UNL     1      53.442  36.485  21.933  1.00  0.00     0.238 C 
ATOM     23  O   UNL     1      52.865  37.334  21.284  1.00  0.00    -0.273 OA
ATOM     24  N   UNL     1      53.653  35.158  21.337  1.00  0.00    -0.341 N 
ATOM     25  H   UNL     1      54.149  34.412  21.845  1.00  0.00     0.164 HD
BRANCH  24  26
ATOM     26  C   UNL     1      53.116  34.942  19.957  1.00  0.00     0.196 C 
BRANCH  26  27
ATOM     27  C   UNL     1      51.559  35.051  20.037  1.00  0.00     0.326 C 
ATOM     28  O   UNL     1      50.920  34.263  20.785  1.00  0.00    -0.250 OA
BRANCH  27  29
ATOM     29  O   UNL     1      51.025  35.917  19.352  1.00  0.00    -0.480 OA
ATOM     30  H   UNL     1      51.212  35.965  18.380  1.00  0.00     0.296 HD
ENDBRANCH  27  29
ENDBRANCH  26  27
BRANCH  26  31
ATOM     31  C   UNL     1      53.597  33.519  19.426  1.00  0.00     0.074 C 
BRANCH  31  32
ATOM     32  C   UNL     1      53.116  33.233  17.990  1.00  0.00    -0.020 A 
ATOM     33  C   UNL     1      53.610  33.789  16.832  1.00  0.00     0.087 A 
ATOM     34  C   UNL     1      52.064  32.331  17.598  1.00  0.00     0.003 A 
ATOM     35  N   UNL     1      52.930  33.287  15.737  1.00  0.00    -0.361 N 
ATOM     36  C   UNL     1      51.961  32.378  16.168  1.00  0.00     0.046 A 
ATOM     37  C   UNL     1      51.165  31.455  18.345  1.00  0.00     0.010 A 
ATOM     38  C   UNL     1      51.008  31.598  15.403  1.00  0.00     0.026 A 
ATOM     39  C   UNL     1      50.214  30.675  17.628  1.00  0.00     0.001 A 
ATOM     40  C   UNL     1      50.137  30.748  16.152  1.00  0.00     0.002 A 
ATOM     41  H   UNL     1      53.109  33.543  14.756  1.00  0.00     0.166 HD
ENDBRANCH  31  32
ENDBRANCH  26  31
ENDBRANCH  24  26
ENDBRANCH  21  22
BRANCH  21  42
ATOM     42  C   UNL     1      53.523  38.022  23.897  1.00  0.00     0.032 C 
BRANCH  42  43
ATOM     43  C   UNL     1      52.831  37.975  25.273  1.00  0.00    -0.015 C 
ATOM     44  C   UNL     1      52.824  39.413  25.787  1.00  0.00     0.007 C 
ATOM     45  C   UNL     1      53.605  37.061  26.278  1.00  0.00     0.007 C 
ENDBRANCH  42  43
ENDBRANCH  21  42
ENDBRANCH   1  21
TORSDOF 16
ENDMDL
