MODEL 1
REMARK VINA RESULT:    -5.166      0.000      0.000
REMARK INTER + INTRA:          -6.045
REMARK INTER:                  -5.921
REMARK INTRA:                  -0.124
REMARK UNBOUND:                -0.124
REMARK SMILES O=C(CS)Nc1ccc(Cl)c(Cl)c1
REMARK SMILES IDX 2 1 5 2 1 3 6 5 7 6 8 7 13 8 9 9 11 10 10 11 12 12 3 13 4 14
REMARK H PARENT 5 4 4 15
ROOT
ATOM      1  C   UNL     1      51.770  35.073  20.034  1.00  0.00     0.234 C 
ATOM      2  N   UNL     1      52.488  34.929  21.215  1.00  0.00    -0.325 N 
ATOM      3  O   UNL     1      51.457  36.234  19.688  1.00  0.00    -0.274 OA
ATOM      4  H   UNL     1      52.656  33.967  21.542  1.00  0.00     0.169 HD
ENDROOT
BRANCH   2   5
ATOM      5  C   UNL     1      53.000  35.954  21.995  1.00  0.00     0.042 A 
ATOM      6  C   UNL     1      54.342  36.392  21.768  1.00  0.00     0.028 A 
ATOM      7  C   UNL     1      54.893  37.457  22.462  1.00  0.00     0.024 A 
ATOM      8  C   UNL     1      52.229  36.661  22.933  1.00  0.00     0.048 A 
ATOM      9  C   UNL     1      54.124  38.143  23.388  1.00  0.00     0.059 A 
ATOM     10  C   UNL     1      52.790  37.735  23.630  1.00  0.00     0.061 A 
ATOM     11  Cl  UNL     1      54.828  39.449  24.227  1.00  0.00    -0.083 Cl
ATOM     12  Cl  UNL     1      51.811  38.548  24.815  1.00  0.00    -0.083 Cl
ENDBRANCH   2   5
BRANCH   1  13
ATOM     13  C   UNL     1      51.343  33.931  19.172  1.00  0.00     0.166 C 
BRANCH  13  14
ATOM     14  S   UNL     1      52.080  32.368  19.849  1.00  0.00    -0.169 SA
ATOM     15  H   UNL     1      52.479  31.566  18.813  1.00  0.00     0.103 HD
ENDBRANCH  13  14
ENDBRANCH   1  13
TORSDOF 3
ENDMDL
MODEL 2
REMARK VINA RESULT:    -4.984      0.824      1.962
REMARK INTER + INTRA:          -5.837
REMARK INTER:                  -5.677
REMARK INTRA:                  -0.159
REMARK UNBOUND:                -0.124
REMARK SMILES O=C(CS)Nc1ccc(Cl)c(Cl)c1
REMARK SMILES IDX 2 1 5 2 1 3 6 5 7 6 8 7 13 8 9 9 11 10 10 11 12 12 3 13 4 14
REMARK H PARENT 5 4 4 15
ROOT
ATOM      1  C   UNL     1      51.793  35.144  20.106  1.00  0.00     0.234 C 
ATOM      2  N   UNL     1      52.519  35.020  21.285  1.00  0.00    -0.325 N 
ATOM      3  O   UNL     1      51.423  36.291  19.775  1.00  0.00    -0.274 OA
ATOM      4  H   UNL     1      52.735  34.064  21.599  1.00  0.00     0.169 HD
ENDROOT
BRANCH   2   5
ATOM      5  C   UNL     1      52.980  36.058  22.078  1.00  0.00     0.042 A 
ATOM      6  C   UNL     1      52.153  36.535  23.144  1.00  0.00     0.028 A 
ATOM      7  C   UNL     1      52.580  37.521  24.018  1.00  0.00     0.024 A 
ATOM      8  C   UNL     1      54.270  36.601  21.957  1.00  0.00     0.048 A 
ATOM      9  C   UNL     1      53.853  38.051  23.884  1.00  0.00     0.059 A 
ATOM     10  C   UNL     1      54.696  37.595  22.843  1.00  0.00     0.061 A 
ATOM     11  Cl  UNL     1      54.352  39.263  24.975  1.00  0.00    -0.083 Cl
ATOM     12  Cl  UNL     1      56.284  38.268  22.622  1.00  0.00    -0.083 Cl
ENDBRANCH   2   5
BRANCH   1  13
ATOM     13  C   UNL     1      51.423  33.993  19.230  1.00  0.00     0.166 C 
BRANCH  13  14
ATOM     14  S   UNL     1      52.210  32.454  19.905  1.00  0.00    -0.169 SA
ATOM     15  H   UNL     1      53.413  32.771  20.480  1.00  0.00     0.103 HD
ENDBRANCH  13  14
ENDBRANCH   1  13
TORSDOF 3
ENDMDL
MODEL 3
REMARK VINA RESULT:    -4.750      4.441      6.205
REMARK INTER + INTRA:          -5.568
REMARK INTER:                  -5.483
REMARK INTRA:                  -0.086
REMARK UNBOUND:                -0.124
REMARK SMILES O=C(CS)Nc1ccc(Cl)c(Cl)c1
REMARK SMILES IDX 2 1 5 2 1 3 6 5 7 6 8 7 13 8 9 9 11 10 10 11 12 12 3 13 4 14
REMARK H PARENT 5 4 4 15
ROOT
ATOM      1  C   UNL     1      52.133  36.293  21.216  1.00  0.00     0.234 C 
ATOM      2  N   UNL     1      52.204  34.973  20.787  1.00  0.00    -0.325 N 
ATOM      3  O   UNL     1      51.827  37.159  20.367  1.00  0.00    -0.274 OA
ATOM      4  H   UNL     1      52.551  34.281  21.467  1.00  0.00     0.169 HD
ENDROOT
BRANCH   2   5
ATOM      5  C   UNL     1      51.852  34.496  19.534  1.00  0.00     0.042 A 
ATOM      6  C   UNL     1      52.875  33.973  18.681  1.00  0.00     0.028 A 
ATOM      7  C   UNL     1      52.585  33.416  17.446  1.00  0.00     0.024 A 
ATOM      8  C   UNL     1      50.521  34.402  19.096  1.00  0.00     0.048 A 
ATOM      9  C   UNL     1      51.269  33.334  17.024  1.00  0.00     0.059 A 
ATOM     10  C   UNL     1      50.235  33.839  17.849  1.00  0.00     0.061 A 
ATOM     11  Cl  UNL     1      50.941  32.645  15.499  1.00  0.00    -0.083 Cl
ATOM     12  Cl  UNL     1      48.575  33.788  17.331  1.00  0.00    -0.083 Cl
ENDBRANCH   2   5
BRANCH   1  13
ATOM     13  C   UNL     1      52.415  36.732  22.615  1.00  0.00     0.166 C 
BRANCH  13  14
ATOM     14  S   UNL     1      53.569  35.510  23.400  1.00  0.00    -0.169 SA
ATOM     15  H   UNL     1      53.525  35.650  24.763  1.00  0.00     0.103 HD
ENDBRANCH  13  14
ENDBRANCH   1  13
TORSDOF 3
ENDMDL
MODEL 4
REMARK VINA RESULT:    -4.660      2.240      2.876
REMARK INTER + INTRA:          -5.465
REMARK INTER:                  -5.412
REMARK INTRA:                  -0.053
REMARK UNBOUND:                -0.124
REMARK SMILES O=C(CS)Nc1ccc(Cl)c(Cl)c1
REMARK SMILES IDX 2 1 5 2 1 3 6 5 7 6 8 7 13 8 9 9 11 10 10 11 12 12 3 13 4 14
REMARK H PARENT 5 4 4 15
ROOT
ATOM      1  C   UNL     1      51.991  35.691  20.458  1.00  0.00     0.234 C 
ATOM      2  N   UNL     1      52.641  34.858  21.361  1.00  0.00    -0.325 N 
ATOM      3  O   UNL     1      52.030  36.921  20.678  1.00  0.00    -0.274 OA
ATOM      4  H   UNL     1      52.523  33.844  21.226  1.00  0.00     0.169 HD
ENDROOT
BRANCH   2   5
ATOM      5  C   UNL     1      53.434  35.260  22.424  1.00  0.00     0.042 A 
ATOM      6  C   UNL     1      52.804  35.771  23.602  1.00  0.00     0.028 A 
ATOM      7  C   UNL     1      53.531  36.124  24.728  1.00  0.00     0.024 A 
ATOM      8  C   UNL     1      54.828  35.091  22.447  1.00  0.00     0.048 A 
ATOM      9  C   UNL     1      54.906  35.957  24.735  1.00  0.00     0.059 A 
ATOM     10  C   UNL     1      55.556  35.448  23.586  1.00  0.00     0.061 A 
ATOM     11  Cl  UNL     1      55.775  36.400  26.134  1.00  0.00    -0.083 Cl
ATOM     12  Cl  UNL     1      57.285  35.264  23.548  1.00  0.00    -0.083 Cl
ENDBRANCH   2   5
BRANCH   1  13
ATOM     13  C   UNL     1      51.245  35.203  19.261  1.00  0.00     0.166 C 
BRANCH  13  14
ATOM     14  S   UNL     1      51.244  33.347  19.278  1.00  0.00    -0.169 SA
ATOM     15  H   UNL     1      52.413  32.895  19.830  1.00  0.00     0.103 HD
ENDBRANCH  13  14
ENDBRANCH   1  13
TORSDOF 3
ENDMDL
MODEL 5
REMARK VINA RESULT:    -4.625      6.838      9.133
REMARK INTER + INTRA:          -5.425
REMARK INTER:                  -5.289
REMARK INTRA:                  -0.137
REMARK UNBOUND:                -0.124
REMARK SMILES O=C(CS)Nc1ccc(Cl)c(Cl)c1
REMARK SMILES IDX 2 1 5 2 1 3 6 5 7 6 8 7 13 8 9 9 11 10 10 11 12 12 3 13 4 14
REMARK H PARENT 5 4 4 15
ROOT
ATOM      1  C   UNL     1      49.662  32.923  18.625  1.00  0.00     0.234 C 
ATOM      2  N   UNL     1      49.504  33.742  17.515  1.00  0.00    -0.325 N 
ATOM      3  O   UNL     1      48.761  32.087  18.857  1.00  0.00    -0.274 OA
ATOM      4  H   UNL     1      50.200  34.491  17.387  1.00  0.00     0.169 HD
ENDROOT
BRANCH   2   5
ATOM      5  C   UNL     1      48.502  33.650  16.562  1.00  0.00     0.042 A 
ATOM      6  C   UNL     1      48.651  32.715  15.490  1.00  0.00     0.028 A 
ATOM      7  C   UNL     1      47.657  32.521  14.544  1.00  0.00     0.024 A 
ATOM      8  C   UNL     1      47.292  34.357  16.652  1.00  0.00     0.048 A 
ATOM      9  C   UNL     1      46.470  33.228  14.642  1.00  0.00     0.059 A 
ATOM     10  C   UNL     1      46.293  34.157  15.696  1.00  0.00     0.061 A 
ATOM     11  Cl  UNL     1      45.265  32.969  13.464  1.00  0.00    -0.083 Cl
ATOM     12  Cl  UNL     1      44.831  35.090  15.824  1.00  0.00    -0.083 Cl
ENDBRANCH   2   5
BRANCH   1  13
ATOM     13  C   UNL     1      50.828  32.993  19.556  1.00  0.00     0.166 C 
BRANCH  13  14
ATOM     14  S   UNL     1      51.533  34.709  19.495  1.00  0.00    -0.169 SA
ATOM     15  H   UNL     1      51.387  35.306  20.720  1.00  0.00     0.103 HD
ENDBRANCH  13  14
ENDBRANCH   1  13
TORSDOF 3
ENDMDL
MODEL 6
REMARK VINA RESULT:    -4.594      5.700      8.076
REMARK INTER + INTRA:          -5.390
REMARK INTER:                  -5.453
REMARK INTRA:                   0.063
REMARK UNBOUND:                -0.124
REMARK SMILES O=C(CS)Nc1ccc(Cl)c(Cl)c1
REMARK SMILES IDX 2 1 5 2 1 3 6 5 7 6 8 7 13 8 9 9 11 10 10 11 12 12 3 13 4 14
REMARK H PARENT 5 4 4 15
ROOT
ATOM      1  C   UNL     1      51.300  34.500  19.084  1.00  0.00     0.234 C 
ATOM      2  N   UNL     1      50.823  33.340  18.487  1.00  0.00    -0.325 N 
ATOM      3  O   UNL     1      51.002  35.589  18.546  1.00  0.00    -0.274 OA
ATOM      4  H   UNL     1      51.152  32.446  18.879  1.00  0.00     0.169 HD
ENDROOT
BRANCH   2   5
ATOM      5  C   UNL     1      49.946  33.268  17.416  1.00  0.00     0.042 A 
ATOM      6  C   UNL     1      50.303  32.471  16.282  1.00  0.00     0.028 A 
ATOM      7  C   UNL     1      49.444  32.298  15.209  1.00  0.00     0.024 A 
ATOM      8  C   UNL     1      48.670  33.855  17.429  1.00  0.00     0.048 A 
ATOM      9  C   UNL     1      48.191  32.886  15.232  1.00  0.00     0.059 A 
ATOM     10  C   UNL     1      47.808  33.676  16.343  1.00  0.00     0.061 A 
ATOM     11  Cl  UNL     1      47.155  32.656  13.898  1.00  0.00    -0.083 Cl
ATOM     12  Cl  UNL     1      46.257  34.462  16.387  1.00  0.00    -0.083 Cl
ENDBRANCH   2   5
BRANCH   1  13
ATOM     13  C   UNL     1      52.151  34.519  20.310  1.00  0.00     0.166 C 
BRANCH  13  14
ATOM     14  S   UNL     1      52.179  36.246  20.988  1.00  0.00    -0.169 SA
ATOM     15  H   UNL     1      52.594  36.218  22.294  1.00  0.00     0.103 HD
ENDBRANCH  13  14
ENDBRANCH   1  13
TORSDOF 3
ENDMDL
MODEL 7
REMARK VINA RESULT:    -4.591      2.384      2.484
REMARK INTER + INTRA:          -5.386
REMARK INTER:                  -5.245
REMARK INTRA:                  -0.141
REMARK UNBOUND:                -0.124
REMARK SMILES O=C(CS)Nc1ccc(Cl)c(Cl)c1
REMARK SMILES IDX 2 1 5 2 1 3 6 5 7 6 8 7 13 8 9 9 11 10 10 11 12 12 3 13 4 14
REMARK H PARENT 5 4 4 15
ROOT
ATOM      1  C   UNL     1      53.540  34.792  20.179  1.00  0.00     0.234 C 
ATOM      2  N   UNL     1      52.876  34.830  21.398  1.00  0.00    -0.325 N 
ATOM      3  O   UNL     1      54.716  35.217  20.149  1.00  0.00    -0.274 OA
ATOM      4  H   UNL     1      51.879  34.570  21.393  1.00  0.00     0.169 HD
ENDROOT
BRANCH   2   5
ATOM      5  C   UNL     1      53.424  35.184  22.621  1.00  0.00     0.042 A 
ATOM      6  C   UNL     1      54.091  34.182  23.395  1.00  0.00     0.028 A 
ATOM      7  C   UNL     1      54.722  34.482  24.592  1.00  0.00     0.024 A 
ATOM      8  C   UNL     1      53.451  36.505  23.095  1.00  0.00     0.048 A 
ATOM      9  C   UNL     1      54.738  35.788  25.051  1.00  0.00     0.059 A 
ATOM     10  C   UNL     1      54.090  36.801  24.303  1.00  0.00     0.061 A 
ATOM     11  Cl  UNL     1      55.522  36.127  26.526  1.00  0.00    -0.083 Cl
ATOM     12  Cl  UNL     1      54.056  38.444  24.871  1.00  0.00    -0.083 Cl
ENDBRANCH   2   5
BRANCH   1  13
ATOM     13  C   UNL     1      52.930  34.291  18.911  1.00  0.00     0.166 C 
BRANCH  13  14
ATOM     14  S   UNL     1      51.088  34.219  19.127  1.00  0.00    -0.169 SA
ATOM     15  H   UNL     1      50.511  33.758  17.973  1.00  0.00     0.103 HD
ENDBRANCH  13  14
ENDBRANCH   1  13
TORSDOF 3
ENDMDL
MODEL 8
REMARK VINA RESULT:    -4.533      2.451      2.633
REMARK INTER + INTRA:          -5.320
REMARK INTER:                  -5.226
REMARK INTRA:                  -0.094
REMARK UNBOUND:                -0.124
REMARK SMILES O=C(CS)Nc1ccc(Cl)c(Cl)c1
REMARK SMILES IDX 2 1 5 2 1 3 6 5 7 6 8 7 13 8 9 9 11 10 10 11 12 12 3 13 4 14
REMARK H PARENT 5 4 4 15
ROOT
ATOM      1  C   UNL     1      54.122  33.196  20.894  1.00  0.00     0.234 C 
ATOM      2  N   UNL     1      53.438  33.619  22.027  1.00  0.00    -0.325 N 
ATOM      3  O   UNL     1      54.936  33.995  20.380  1.00  0.00    -0.274 OA
ATOM      4  H   UNL     1      52.702  32.995  22.386  1.00  0.00     0.169 HD
ENDROOT
BRANCH   2   5
ATOM      5  C   UNL     1      53.651  34.799  22.722  1.00  0.00     0.042 A 
ATOM      6  C   UNL     1      53.053  36.005  22.237  1.00  0.00     0.028 A 
ATOM      7  C   UNL     1      53.166  37.205  22.920  1.00  0.00     0.024 A 
ATOM      8  C   UNL     1      54.340  34.855  23.945  1.00  0.00     0.048 A 
ATOM      9  C   UNL     1      53.852  37.247  24.122  1.00  0.00     0.059 A 
ATOM     10  C   UNL     1      54.450  36.068  24.630  1.00  0.00     0.061 A 
ATOM     11  Cl  UNL     1      53.975  38.738  24.941  1.00  0.00    -0.083 Cl
ATOM     12  Cl  UNL     1      55.353  36.095  26.115  1.00  0.00    -0.083 Cl
ENDBRANCH   2   5
BRANCH   1  13
ATOM     13  C   UNL     1      53.931  31.860  20.254  1.00  0.00     0.166 C 
BRANCH  13  14
ATOM     14  S   UNL     1      52.122  31.447  20.270  1.00  0.00    -0.169 SA
ATOM     15  H   UNL     1      51.898  30.350  19.481  1.00  0.00     0.103 HD
ENDBRANCH  13  14
ENDBRANCH   1  13
TORSDOF 3
ENDMDL
MODEL 9
REMARK VINA RESULT:    -4.497      2.041      2.257
REMARK INTER + INTRA:          -5.279
REMARK INTER:                  -5.154
REMARK INTRA:                  -0.124
REMARK UNBOUND:                -0.124
REMARK SMILES O=C(CS)Nc1ccc(Cl)c(Cl)c1
REMARK SMILES IDX 2 1 5 2 1 3 6 5 7 6 8 7 13 8 9 9 11 10 10 11 12 12 3 13 4 14
REMARK H PARENT 5 4 4 15
ROOT
ATOM      1  C   UNL     1      51.724  35.237  20.053  1.00  0.00     0.234 C 
ATOM      2  N   UNL     1      52.539  34.395  20.801  1.00  0.00    -0.325 N 
ATOM      3  O   UNL     1      51.905  36.469  20.170  1.00  0.00    -0.274 OA
ATOM      4  H   UNL     1      52.318  33.390  20.773  1.00  0.00     0.169 HD
ENDROOT
BRANCH   2   5
ATOM      5  C   UNL     1      53.619  34.778  21.580  1.00  0.00     0.042 A 
ATOM      6  C   UNL     1      54.926  34.776  20.999  1.00  0.00     0.028 A 
ATOM      7  C   UNL     1      56.039  35.214  21.698  1.00  0.00     0.024 A 
ATOM      8  C   UNL     1      53.484  35.271  22.888  1.00  0.00     0.048 A 
ATOM      9  C   UNL     1      55.893  35.693  22.989  1.00  0.00     0.059 A 
ATOM     10  C   UNL     1      54.610  35.712  23.588  1.00  0.00     0.061 A 
ATOM     11  Cl  UNL     1      57.280  36.225  23.825  1.00  0.00    -0.083 Cl
ATOM     12  Cl  UNL     1      54.398  36.270  25.222  1.00  0.00    -0.083 Cl
ENDBRANCH   2   5
BRANCH   1  13
ATOM     13  C   UNL     1      50.645  34.758  19.139  1.00  0.00     0.166 C 
BRANCH  13  14
ATOM     14  S   UNL     1      50.647  32.902  19.139  1.00  0.00    -0.169 SA
ATOM     15  H   UNL     1      51.830  32.447  19.661  1.00  0.00     0.103 HD
ENDBRANCH  13  14
ENDBRANCH   1  13
TORSDOF 3
ENDMDL
MODEL 10
REMARK VINA RESULT:    -4.467      8.531     10.230
REMARK INTER + INTRA:          -5.244
REMARK INTER:                  -5.090
REMARK INTRA:                  -0.154
REMARK UNBOUND:                -0.124
REMARK SMILES O=C(CS)Nc1ccc(Cl)c(Cl)c1
REMARK SMILES IDX 2 1 5 2 1 3 6 5 7 6 8 7 13 8 9 9 11 10 10 11 12 12 3 13 4 14
REMARK H PARENT 5 4 4 15
ROOT
ATOM      1  C   UNL     1      48.705  32.158  17.538  1.00  0.00     0.234 C 
ATOM      2  N   UNL     1      48.595  33.179  16.602  1.00  0.00    -0.325 N 
ATOM      3  O   UNL     1      47.675  31.496  17.792  1.00  0.00    -0.274 OA
ATOM      4  H   UNL     1      49.421  33.780  16.472  1.00  0.00     0.169 HD
ENDROOT
BRANCH   2   5
ATOM      5  C   UNL     1      47.483  33.467  15.827  1.00  0.00     0.042 A 
ATOM      6  C   UNL     1      46.551  34.448  16.293  1.00  0.00     0.028 A 
ATOM      7  C   UNL     1      45.457  34.835  15.536  1.00  0.00     0.024 A 
ATOM      8  C   UNL     1      47.277  32.921  14.550  1.00  0.00     0.048 A 
ATOM      9  C   UNL     1      45.262  34.284  14.281  1.00  0.00     0.059 A 
ATOM     10  C   UNL     1      46.171  33.316  13.792  1.00  0.00     0.061 A 
ATOM     11  Cl  UNL     1      43.907  34.780  13.373  1.00  0.00    -0.083 Cl
ATOM     12  Cl  UNL     1      45.934  32.575  12.236  1.00  0.00    -0.083 Cl
ENDBRANCH   2   5
BRANCH   1  13
ATOM     13  C   UNL     1      49.967  31.820  18.261  1.00  0.00     0.166 C 
BRANCH  13  14
ATOM     14  S   UNL     1      50.709  33.386  18.924  1.00  0.00    -0.169 SA
ATOM     15  H   UNL     1      51.613  33.082  19.908  1.00  0.00     0.103 HD
ENDBRANCH  13  14
ENDBRANCH   1  13
TORSDOF 3
ENDMDL
MODEL 11
REMARK VINA RESULT:    -4.407      4.776      6.794
REMARK INTER + INTRA:          -5.175
REMARK INTER:                  -5.053
REMARK INTRA:                  -0.123
REMARK UNBOUND:                -0.124
REMARK SMILES O=C(CS)Nc1ccc(Cl)c(Cl)c1
REMARK SMILES IDX 2 1 5 2 1 3 6 5 7 6 8 7 13 8 9 9 11 10 10 11 12 12 3 13 4 14
REMARK H PARENT 5 4 4 15
ROOT
ATOM      1  C   UNL     1      52.098  35.915  20.896  1.00  0.00     0.234 C 
ATOM      2  N   UNL     1      52.085  34.581  20.507  1.00  0.00    -0.325 N 
ATOM      3  O   UNL     1      51.674  36.759  20.076  1.00  0.00    -0.274 OA
ATOM      4  H   UNL     1      52.524  33.906  21.148  1.00  0.00     0.169 HD
ENDROOT
BRANCH   2   5
ATOM      5  C   UNL     1      51.537  34.071  19.340  1.00  0.00     0.042 A 
ATOM      6  C   UNL     1      50.161  33.679  19.336  1.00  0.00     0.028 A 
ATOM      7  C   UNL     1      49.532  33.229  18.187  1.00  0.00     0.024 A 
ATOM      8  C   UNL     1      52.238  34.018  18.124  1.00  0.00     0.048 A 
ATOM      9  C   UNL     1      50.236  33.176  16.995  1.00  0.00     0.059 A 
ATOM     10  C   UNL     1      51.598  33.563  16.968  1.00  0.00     0.061 A 
ATOM     11  Cl  UNL     1      49.436  32.618  15.597  1.00  0.00    -0.083 Cl
ATOM     12  Cl  UNL     1      52.521  33.471  15.498  1.00  0.00    -0.083 Cl
ENDBRANCH   2   5
BRANCH   1  13
ATOM     13  C   UNL     1      52.598  36.393  22.219  1.00  0.00     0.166 C 
BRANCH  13  14
ATOM     14  S   UNL     1      54.062  37.498  21.936  1.00  0.00    -0.169 SA
ATOM     15  H   UNL     1      54.931  36.892  21.067  1.00  0.00     0.103 HD
ENDBRANCH  13  14
ENDBRANCH   1  13
TORSDOF 3
ENDMDL
MODEL 12
REMARK VINA RESULT:    -4.373      7.992      9.170
REMARK INTER + INTRA:          -5.136
REMARK INTER:                  -4.988
REMARK INTRA:                  -0.149
REMARK UNBOUND:                -0.124
REMARK SMILES O=C(CS)Nc1ccc(Cl)c(Cl)c1
REMARK SMILES IDX 2 1 5 2 1 3 6 5 7 6 8 7 13 8 9 9 11 10 10 11 12 12 3 13 4 14
REMARK H PARENT 5 4 4 15
ROOT
ATOM      1  C   UNL     1      49.437  31.866  18.444  1.00  0.00     0.234 C 
ATOM      2  N   UNL     1      48.669  31.818  17.287  1.00  0.00    -0.325 N 
ATOM      3  O   UNL     1      49.114  32.704  19.315  1.00  0.00    -0.274 OA
ATOM      4  H   UNL     1      48.999  31.195  16.536  1.00  0.00     0.169 HD
ENDROOT
BRANCH   2   5
ATOM      5  C   UNL     1      47.502  32.525  17.045  1.00  0.00     0.042 A 
ATOM      6  C   UNL     1      47.574  33.745  16.302  1.00  0.00     0.028 A 
ATOM      7  C   UNL     1      46.439  34.464  15.964  1.00  0.00     0.024 A 
ATOM      8  C   UNL     1      46.230  32.049  17.403  1.00  0.00     0.048 A 
ATOM      9  C   UNL     1      45.191  33.987  16.328  1.00  0.00     0.059 A 
ATOM     10  C   UNL     1      45.089  32.779  17.059  1.00  0.00     0.061 A 
ATOM     11  Cl  UNL     1      43.812  34.894  15.899  1.00  0.00    -0.083 Cl
ATOM     12  Cl  UNL     1      43.540  32.173  17.566  1.00  0.00    -0.083 Cl
ENDBRANCH   2   5
BRANCH   1  13
ATOM     13  C   UNL     1      50.623  30.994  18.696  1.00  0.00     0.166 C 
BRANCH  13  14
ATOM     14  S   UNL     1      52.126  32.069  18.865  1.00  0.00    -0.169 SA
ATOM     15  H   UNL     1      52.741  31.809  20.061  1.00  0.00     0.103 HD
ENDBRANCH  13  14
ENDBRANCH   1  13
TORSDOF 3
ENDMDL
MODEL 13
REMARK VINA RESULT:    -4.361      7.080      9.066
REMARK INTER + INTRA:          -5.123
REMARK INTER:                  -4.960
REMARK INTRA:                  -0.163
REMARK UNBOUND:                -0.124
REMARK SMILES O=C(CS)Nc1ccc(Cl)c(Cl)c1
REMARK SMILES IDX 2 1 5 2 1 3 6 5 7 6 8 7 13 8 9 9 11 10 10 11 12 12 3 13 4 14
REMARK H PARENT 5 4 4 15
ROOT
ATOM      1  C   UNL     1      50.482  33.362  17.159  1.00  0.00     0.234 C 
ATOM      2  N   UNL     1      49.283  33.618  17.814  1.00  0.00    -0.325 N 
ATOM      3  O   UNL     1      50.426  32.734  16.079  1.00  0.00    -0.274 OA
ATOM      4  H   UNL     1      49.347  34.049  18.748  1.00  0.00     0.169 HD
ENDROOT
BRANCH   2   5
ATOM      5  C   UNL     1      48.011  33.351  17.334  1.00  0.00     0.042 A 
ATOM      6  C   UNL     1      47.395  32.103  17.664  1.00  0.00     0.028 A 
ATOM      7  C   UNL     1      46.100  31.801  17.276  1.00  0.00     0.024 A 
ATOM      8  C   UNL     1      47.248  34.292  16.622  1.00  0.00     0.048 A 
ATOM      9  C   UNL     1      45.360  32.735  16.571  1.00  0.00     0.059 A 
ATOM     10  C   UNL     1      45.942  33.981  16.235  1.00  0.00     0.061 A 
ATOM     11  Cl  UNL     1      43.768  32.335  16.107  1.00  0.00    -0.083 Cl
ATOM     12  Cl  UNL     1      45.054  35.160  15.315  1.00  0.00    -0.083 Cl
ENDBRANCH   2   5
BRANCH   1  13
ATOM     13  C   UNL     1      51.820  33.778  17.675  1.00  0.00     0.166 C 
BRANCH  13  14
ATOM     14  S   UNL     1      51.592  34.600  19.323  1.00  0.00    -0.169 SA
ATOM     15  H   UNL     1      50.260  34.619  19.643  1.00  0.00     0.103 HD
ENDBRANCH  13  14
ENDBRANCH   1  13
TORSDOF 3
ENDMDL
MODEL 14
REMARK VINA RESULT:    -4.281      4.724      5.708
REMARK INTER + INTRA:          -5.031
REMARK INTER:                  -4.900
REMARK INTRA:                  -0.131
REMARK UNBOUND:                -0.124
REMARK SMILES O=C(CS)Nc1ccc(Cl)c(Cl)c1
REMARK SMILES IDX 2 1 5 2 1 3 6 5 7 6 8 7 13 8 9 9 11 10 10 11 12 12 3 13 4 14
REMARK H PARENT 5 4 4 15
ROOT
ATOM      1  C   UNL     1      54.675  37.596  23.528  1.00  0.00     0.234 C 
ATOM      2  N   UNL     1      55.936  37.267  23.047  1.00  0.00    -0.325 N 
ATOM      3  O   UNL     1      54.142  38.637  23.084  1.00  0.00    -0.274 OA
ATOM      4  H   UNL     1      56.407  36.464  23.488  1.00  0.00     0.169 HD
ENDROOT
BRANCH   2   5
ATOM      5  C   UNL     1      56.623  37.915  22.033  1.00  0.00     0.042 A 
ATOM      6  C   UNL     1      56.293  37.614  20.673  1.00  0.00     0.028 A 
ATOM      7  C   UNL     1      56.890  38.275  19.612  1.00  0.00     0.024 A 
ATOM      8  C   UNL     1      57.558  38.935  22.270  1.00  0.00     0.048 A 
ATOM      9  C   UNL     1      57.814  39.276  19.860  1.00  0.00     0.059 A 
ATOM     10  C   UNL     1      58.156  39.599  21.195  1.00  0.00     0.061 A 
ATOM     11  Cl  UNL     1      58.532  40.072  18.534  1.00  0.00    -0.083 Cl
ATOM     12  Cl  UNL     1      59.343  40.822  21.541  1.00  0.00    -0.083 Cl
ENDBRANCH   2   5
BRANCH   1  13
ATOM     13  C   UNL     1      53.933  36.791  24.544  1.00  0.00     0.166 C 
BRANCH  13  14
ATOM     14  S   UNL     1      55.150  35.749  25.479  1.00  0.00    -0.169 SA
ATOM     15  H   UNL     1      55.296  34.540  24.850  1.00  0.00     0.103 HD
ENDBRANCH  13  14
ENDBRANCH   1  13
TORSDOF 3
ENDMDL
MODEL 15
REMARK VINA RESULT:    -4.242      3.927      5.094
REMARK INTER + INTRA:          -4.986
REMARK INTER:                  -5.102
REMARK INTRA:                   0.116
REMARK UNBOUND:                -0.124
REMARK SMILES O=C(CS)Nc1ccc(Cl)c(Cl)c1
REMARK SMILES IDX 2 1 5 2 1 3 6 5 7 6 8 7 13 8 9 9 11 10 10 11 12 12 3 13 4 14
REMARK H PARENT 5 4 4 15
ROOT
ATOM      1  C   UNL     1      53.948  37.805  22.993  1.00  0.00     0.234 C 
ATOM      2  N   UNL     1      54.967  36.906  22.704  1.00  0.00    -0.325 N 
ATOM      3  O   UNL     1      54.271  38.893  23.517  1.00  0.00    -0.274 OA
ATOM      4  H   UNL     1      54.684  35.976  22.364  1.00  0.00     0.169 HD
ENDROOT
BRANCH   2   5
ATOM      5  C   UNL     1      56.327  37.139  22.829  1.00  0.00     0.042 A 
ATOM      6  C   UNL     1      57.143  36.151  23.466  1.00  0.00     0.028 A 
ATOM      7  C   UNL     1      58.519  36.287  23.561  1.00  0.00     0.024 A 
ATOM      8  C   UNL     1      56.969  38.254  22.266  1.00  0.00     0.048 A 
ATOM      9  C   UNL     1      59.138  37.394  23.006  1.00  0.00     0.059 A 
ATOM     10  C   UNL     1      58.357  38.386  22.365  1.00  0.00     0.061 A 
ATOM     11  Cl  UNL     1      60.832  37.535  23.138  1.00  0.00    -0.083 Cl
ATOM     12  Cl  UNL     1      59.098  39.808  21.692  1.00  0.00    -0.083 Cl
ENDBRANCH   2   5
BRANCH   1  13
ATOM     13  C   UNL     1      52.502  37.541  22.729  1.00  0.00     0.166 C 
BRANCH  13  14
ATOM     14  S   UNL     1      52.366  36.343  21.318  1.00  0.00    -0.169 SA
ATOM     15  H   UNL     1      51.082  35.870  21.242  1.00  0.00     0.103 HD
ENDBRANCH  13  14
ENDBRANCH   1  13
TORSDOF 3
ENDMDL
MODEL 16
REMARK VINA RESULT:    -4.228      4.243      5.194
REMARK INTER + INTRA:          -4.970
REMARK INTER:                  -4.864
REMARK INTRA:                  -0.106
REMARK UNBOUND:                -0.124
REMARK SMILES O=C(CS)Nc1ccc(Cl)c(Cl)c1
REMARK SMILES IDX 2 1 5 2 1 3 6 5 7 6 8 7 13 8 9 9 11 10 10 11 12 12 3 13 4 14
REMARK H PARENT 5 4 4 15
ROOT
ATOM      1  C   UNL     1      58.254  35.354  23.376  1.00  0.00     0.234 C 
ATOM      2  N   UNL     1      56.950  34.879  23.305  1.00  0.00    -0.325 N 
ATOM      3  O   UNL     1      58.412  36.579  23.570  1.00  0.00    -0.274 OA
ATOM      4  H   UNL     1      56.829  33.889  23.050  1.00  0.00     0.169 HD
ENDROOT
BRANCH   2   5
ATOM      5  C   UNL     1      55.797  35.608  23.546  1.00  0.00     0.042 A 
ATOM      6  C   UNL     1      55.421  35.882  24.899  1.00  0.00     0.028 A 
ATOM      7  C   UNL     1      54.320  36.664  25.209  1.00  0.00     0.024 A 
ATOM      8  C   UNL     1      55.029  36.188  22.522  1.00  0.00     0.048 A 
ATOM      9  C   UNL     1      53.569  37.225  24.190  1.00  0.00     0.059 A 
ATOM     10  C   UNL     1      53.920  36.976  22.842  1.00  0.00     0.061 A 
ATOM     11  Cl  UNL     1      52.220  38.183  24.602  1.00  0.00    -0.083 Cl
ATOM     12  Cl  UNL     1      52.974  37.633  21.538  1.00  0.00    -0.083 Cl
ENDBRANCH   2   5
BRANCH   1  13
ATOM     13  C   UNL     1      59.465  34.494  23.221  1.00  0.00     0.166 C 
BRANCH  13  14
ATOM     14  S   UNL     1      59.663  34.064  21.427  1.00  0.00    -0.169 SA
ATOM     15  H   UNL     1      59.777  35.215  20.692  1.00  0.00     0.103 HD
ENDBRANCH  13  14
ENDBRANCH   1  13
TORSDOF 3
ENDMDL
MODEL 17
REMARK VINA RESULT:    -4.164      4.580      5.621
REMARK INTER + INTRA:          -4.896
REMARK INTER:                  -4.747
REMARK INTRA:                  -0.149
REMARK UNBOUND:                -0.124
REMARK SMILES O=C(CS)Nc1ccc(Cl)c(Cl)c1
REMARK SMILES IDX 2 1 5 2 1 3 6 5 7 6 8 7 13 8 9 9 11 10 10 11 12 12 3 13 4 14
REMARK H PARENT 5 4 4 15
ROOT
ATOM      1  C   UNL     1      48.875  33.635  17.589  1.00  0.00     0.234 C 
ATOM      2  N   UNL     1      49.325  33.618  18.903  1.00  0.00    -0.325 N 
ATOM      3  O   UNL     1      49.738  33.640  16.684  1.00  0.00    -0.274 OA
ATOM      4  H   UNL     1      48.611  33.712  19.640  1.00  0.00     0.169 HD
ENDROOT
BRANCH   2   5
ATOM      5  C   UNL     1      50.640  33.487  19.320  1.00  0.00     0.042 A 
ATOM      6  C   UNL     1      51.387  34.667  19.632  1.00  0.00     0.028 A 
ATOM      7  C   UNL     1      52.682  34.605  20.121  1.00  0.00     0.024 A 
ATOM      8  C   UNL     1      51.249  32.244  19.555  1.00  0.00     0.048 A 
ATOM      9  C   UNL     1      53.273  33.373  20.343  1.00  0.00     0.059 A 
ATOM     10  C   UNL     1      52.555  32.188  20.048  1.00  0.00     0.061 A 
ATOM     11  Cl  UNL     1      54.868  33.327  20.945  1.00  0.00    -0.083 Cl
ATOM     12  Cl  UNL     1      53.282  30.625  20.278  1.00  0.00    -0.083 Cl
ENDBRANCH   2   5
BRANCH   1  13
ATOM     13  C   UNL     1      47.433  33.661  17.200  1.00  0.00     0.166 C 
BRANCH  13  14
ATOM     14  S   UNL     1      47.300  33.288  15.387  1.00  0.00    -0.169 SA
ATOM     15  H   UNL     1      46.109  33.767  14.909  1.00  0.00     0.103 HD
ENDBRANCH  13  14
ENDBRANCH   1  13
TORSDOF 3
ENDMDL
MODEL 18
REMARK VINA RESULT:    -4.095      3.453      4.417
REMARK INTER + INTRA:          -4.818
REMARK INTER:                  -4.708
REMARK INTRA:                  -0.110
REMARK UNBOUND:                -0.124
REMARK SMILES O=C(CS)Nc1ccc(Cl)c(Cl)c1
REMARK SMILES IDX 2 1 5 2 1 3 6 5 7 6 8 7 13 8 9 9 11 10 10 11 12 12 3 13 4 14
REMARK H PARENT 5 4 4 15
ROOT
ATOM      1  C   UNL     1      49.032  33.749  17.995  1.00  0.00     0.234 C 
ATOM      2  N   UNL     1      50.279  34.361  17.982  1.00  0.00    -0.325 N 
ATOM      3  O   UNL     1      48.765  33.005  18.964  1.00  0.00    -0.274 OA
ATOM      4  H   UNL     1      50.527  34.893  17.136  1.00  0.00     0.169 HD
ENDROOT
BRANCH   2   5
ATOM      5  C   UNL     1      51.222  34.326  18.997  1.00  0.00     0.042 A 
ATOM      6  C   UNL     1      52.131  33.223  19.059  1.00  0.00     0.028 A 
ATOM      7  C   UNL     1      53.143  33.160  20.003  1.00  0.00     0.024 A 
ATOM      8  C   UNL     1      51.401  35.375  19.913  1.00  0.00     0.048 A 
ATOM      9  C   UNL     1      53.306  34.199  20.904  1.00  0.00     0.059 A 
ATOM     10  C   UNL     1      52.424  35.306  20.864  1.00  0.00     0.061 A 
ATOM     11  Cl  UNL     1      54.559  34.093  22.055  1.00  0.00    -0.083 Cl
ATOM     12  Cl  UNL     1      52.575  36.608  22.006  1.00  0.00    -0.083 Cl
ENDBRANCH   2   5
BRANCH   1  13
ATOM     13  C   UNL     1      48.008  33.918  16.921  1.00  0.00     0.166 C 
BRANCH  13  14
ATOM     14  S   UNL     1      48.309  32.641  15.608  1.00  0.00    -0.169 SA
ATOM     15  H   UNL     1      48.998  33.209  14.569  1.00  0.00     0.103 HD
ENDBRANCH  13  14
ENDBRANCH   1  13
TORSDOF 3
ENDMDL
MODEL 19
REMARK VINA RESULT:    -4.080      7.563      9.304
REMARK INTER + INTRA:          -4.800
REMARK INTER:                  -4.679
REMARK INTRA:                  -0.121
REMARK UNBOUND:                -0.124
REMARK SMILES O=C(CS)Nc1ccc(Cl)c(Cl)c1
REMARK SMILES IDX 2 1 5 2 1 3 6 5 7 6 8 7 13 8 9 9 11 10 10 11 12 12 3 13 4 14
REMARK H PARENT 5 4 4 15
ROOT
ATOM      1  C   UNL     1      50.177  33.271  16.955  1.00  0.00     0.234 C 
ATOM      2  N   UNL     1      49.051  33.715  17.639  1.00  0.00    -0.325 N 
ATOM      3  O   UNL     1      49.994  32.534  15.962  1.00  0.00    -0.274 OA
ATOM      4  H   UNL     1      49.213  34.240  18.510  1.00  0.00     0.169 HD
ENDROOT
BRANCH   2   5
ATOM      5  C   UNL     1      47.732  33.520  17.262  1.00  0.00     0.042 A 
ATOM      6  C   UNL     1      47.120  34.460  16.374  1.00  0.00     0.028 A 
ATOM      7  C   UNL     1      45.829  34.287  15.901  1.00  0.00     0.024 A 
ATOM      8  C   UNL     1      46.991  32.383  17.626  1.00  0.00     0.048 A 
ATOM      9  C   UNL     1      45.108  33.165  16.271  1.00  0.00     0.059 A 
ATOM     10  C   UNL     1      45.690  32.215  17.145  1.00  0.00     0.061 A 
ATOM     11  Cl  UNL     1      43.522  32.979  15.675  1.00  0.00    -0.083 Cl
ATOM     12  Cl  UNL     1      44.797  30.814  17.661  1.00  0.00    -0.083 Cl
ENDBRANCH   2   5
BRANCH   1  13
ATOM     13  C   UNL     1      51.578  33.611  17.345  1.00  0.00     0.166 C 
BRANCH  13  14
ATOM     14  S   UNL     1      52.645  33.560  15.828  1.00  0.00    -0.169 SA
ATOM     15  H   UNL     1      53.670  34.460  15.960  1.00  0.00     0.103 HD
ENDBRANCH  13  14
ENDBRANCH   1  13
TORSDOF 3
ENDMDL
MODEL 20
REMARK VINA RESULT:    -4.067      5.021      5.823
REMARK INTER + INTRA:          -4.785
REMARK INTER:                  -4.682
REMARK INTRA:                  -0.103
REMARK UNBOUND:                -0.124
REMARK SMILES O=C(CS)Nc1ccc(Cl)c(Cl)c1
REMARK SMILES IDX 2 1 5 2 1 3 6 5 7 6 8 7 13 8 9 9 11 10 10 11 12 12 3 13 4 14
REMARK H PARENT 5 4 4 15
ROOT
ATOM      1  C   UNL     1      57.905  39.136  21.234  1.00  0.00     0.234 C 
ATOM      2  N   UNL     1      56.998  38.084  21.224  1.00  0.00    -0.325 N 
ATOM      3  O   UNL     1      58.200  39.632  22.344  1.00  0.00    -0.274 OA
ATOM      4  H   UNL     1      56.687  37.747  20.302  1.00  0.00     0.169 HD
ENDROOT
BRANCH   2   5
ATOM      5  C   UNL     1      56.470  37.443  22.334  1.00  0.00     0.042 A 
ATOM      6  C   UNL     1      57.271  36.478  23.021  1.00  0.00     0.028 A 
ATOM      7  C   UNL     1      56.834  35.853  24.178  1.00  0.00     0.024 A 
ATOM      8  C   UNL     1      55.221  37.772  22.887  1.00  0.00     0.048 A 
ATOM      9  C   UNL     1      55.598  36.182  24.710  1.00  0.00     0.059 A 
ATOM     10  C   UNL     1      54.786  37.139  24.054  1.00  0.00     0.061 A 
ATOM     11  Cl  UNL     1      55.086  35.397  26.134  1.00  0.00    -0.083 Cl
ATOM     12  Cl  UNL     1      53.212  37.546  24.673  1.00  0.00    -0.083 Cl
ENDBRANCH   2   5
BRANCH   1  13
ATOM     13  C   UNL     1      58.530  39.711  20.006  1.00  0.00     0.166 C 
BRANCH  13  14
ATOM     14  S   UNL     1      58.494  41.562  20.132  1.00  0.00    -0.169 SA
ATOM     15  H   UNL     1      59.118  42.106  19.041  1.00  0.00     0.103 HD
ENDBRANCH  13  14
ENDBRANCH   1  13
TORSDOF 3
ENDMDL
