MODEL 1
REMARK VINA RESULT:    -8.094      0.000      0.000
REMARK INTER + INTRA:          -9.766
REMARK INTER:                  -9.750
REMARK INTRA:                  -0.017
REMARK UNBOUND:                -0.017
REMARK SMILES O=C(CC(=O)Nc1ccc(Cl)c(Cl)c1)NO
REMARK SMILES IDX 3 1 2 2 15 3 1 4 16 6 4 8 6 9 5 10 7 12 14 13 8 14 12 15
REMARK SMILES IDX 9 16 10 17 13 18 11 19
REMARK H PARENT 15 5 16 7 6 11
ROOT
ATOM      1  C   UNL     1      50.868  33.280  19.670  1.00  0.00     0.202 C 
ENDROOT
BRANCH   1   2
ATOM      2  C   UNL     1      51.445  34.506  20.400  1.00  0.00     0.252 C 
ATOM      3  N   UNL     1      51.034  34.797  21.737  1.00  0.00    -0.237 N 
ATOM      4  O   UNL     1      52.247  35.209  19.818  1.00  0.00    -0.272 OA
ATOM      5  H   UNL     1      50.346  34.214  22.234  1.00  0.00     0.198 HD
BRANCH   3   6
ATOM      6  O   UNL     1      51.601  35.881  22.310  1.00  0.00    -0.289 OA
ATOM      7  H   UNL     1      52.535  35.969  21.998  1.00  0.00     0.246 HD
ENDBRANCH   3   6
ENDBRANCH   1   2
BRANCH   1   8
ATOM      8  C   UNL     1      49.646  33.607  18.824  1.00  0.00     0.233 C 
ATOM      9  N   UNL     1      49.086  32.666  17.907  1.00  0.00    -0.326 N 
ATOM     10  O   UNL     1      49.146  34.710  18.917  1.00  0.00    -0.274 OA
ATOM     11  H   UNL     1      49.529  31.736  17.862  1.00  0.00     0.169 HD
BRANCH   9  12
ATOM     12  C   UNL     1      47.929  32.905  17.018  1.00  0.00     0.042 A 
ATOM     13  C   UNL     1      46.793  33.630  17.448  1.00  0.00     0.048 A 
ATOM     14  C   UNL     1      47.856  32.383  15.697  1.00  0.00     0.028 A 
ATOM     15  C   UNL     1      45.690  33.830  16.606  1.00  0.00     0.061 A 
ATOM     16  C   UNL     1      46.746  32.586  14.864  1.00  0.00     0.024 A 
ATOM     17  C   UNL     1      45.653  33.318  15.318  1.00  0.00     0.059 A 
ATOM     18  Cl  UNL     1      44.316  34.740  17.163  1.00  0.00    -0.083 Cl
ATOM     19  Cl  UNL     1      44.283  33.569  14.287  1.00  0.00    -0.083 Cl
ENDBRANCH   9  12
ENDBRANCH   1   8
TORSDOF 4
ENDMDL
MODEL 2
REMARK VINA RESULT:    -7.919      0.754      1.745
REMARK INTER + INTRA:          -9.556
REMARK INTER:                  -9.537
REMARK INTRA:                  -0.018
REMARK UNBOUND:                -0.017
REMARK SMILES O=C(CC(=O)Nc1ccc(Cl)c(Cl)c1)NO
REMARK SMILES IDX 3 1 2 2 15 3 1 4 16 6 4 8 6 9 5 10 7 12 14 13 8 14 12 15
REMARK SMILES IDX 9 16 10 17 13 18 11 19
REMARK H PARENT 15 5 16 7 6 11
ROOT
ATOM      1  C   UNL     1      50.874  33.288  19.467  1.00  0.00     0.202 C 
ENDROOT
BRANCH   1   2
ATOM      2  C   UNL     1      51.468  34.447  20.285  1.00  0.00     0.252 C 
ATOM      3  N   UNL     1      50.966  34.726  21.593  1.00  0.00    -0.237 N 
ATOM      4  O   UNL     1      52.363  35.109  19.798  1.00  0.00    -0.272 OA
ATOM      5  H   UNL     1      50.199  34.178  22.011  1.00  0.00     0.198 HD
BRANCH   3   6
ATOM      6  O   UNL     1      51.553  35.749  22.251  1.00  0.00    -0.289 OA
ATOM      7  H   UNL     1      50.999  36.003  23.031  1.00  0.00     0.246 HD
ENDBRANCH   3   6
ENDBRANCH   1   2
BRANCH   1   8
ATOM      8  C   UNL     1      49.601  33.669  18.725  1.00  0.00     0.233 C 
ATOM      9  N   UNL     1      48.968  32.783  17.802  1.00  0.00    -0.326 N 
ATOM     10  O   UNL     1      49.122  34.770  18.910  1.00  0.00    -0.274 OA
ATOM     11  H   UNL     1      49.394  31.853  17.678  1.00  0.00     0.169 HD
BRANCH   9  12
ATOM     12  C   UNL     1      47.755  33.078  17.009  1.00  0.00     0.042 A 
ATOM     13  C   UNL     1      47.554  32.529  15.721  1.00  0.00     0.048 A 
ATOM     14  C   UNL     1      46.741  33.967  17.459  1.00  0.00     0.028 A 
ATOM     15  C   UNL     1      46.413  32.834  14.965  1.00  0.00     0.061 A 
ATOM     16  C   UNL     1      45.605  34.268  16.693  1.00  0.00     0.024 A 
ATOM     17  C   UNL     1      45.434  33.696  15.436  1.00  0.00     0.059 A 
ATOM     18  Cl  UNL     1      46.190  32.128  13.391  1.00  0.00    -0.083 Cl
ATOM     19  Cl  UNL     1      44.030  34.068  14.492  1.00  0.00    -0.083 Cl
ENDBRANCH   9  12
ENDBRANCH   1   8
TORSDOF 4
ENDMDL
MODEL 3
REMARK VINA RESULT:    -7.604      2.423      3.224
REMARK INTER + INTRA:          -9.177
REMARK INTER:                  -8.973
REMARK INTRA:                  -0.205
REMARK UNBOUND:                -0.017
REMARK SMILES O=C(CC(=O)Nc1ccc(Cl)c(Cl)c1)NO
REMARK SMILES IDX 3 1 2 2 15 3 1 4 16 6 4 8 6 9 5 10 7 12 14 13 8 14 12 15
REMARK SMILES IDX 9 16 10 17 13 18 11 19
REMARK H PARENT 15 5 16 7 6 11
ROOT
ATOM      1  C   UNL     1      53.396  34.982  21.190  1.00  0.00     0.202 C 
ENDROOT
BRANCH   1   2
ATOM      2  C   UNL     1      52.792  36.179  21.945  1.00  0.00     0.252 C 
ATOM      3  N   UNL     1      52.876  36.238  23.370  1.00  0.00    -0.237 N 
ATOM      4  O   UNL     1      52.249  37.059  21.307  1.00  0.00    -0.272 OA
ATOM      5  H   UNL     1      53.323  35.491  23.920  1.00  0.00     0.198 HD
BRANCH   3   6
ATOM      6  O   UNL     1      52.335  37.330  23.953  1.00  0.00    -0.289 OA
ATOM      7  H   UNL     1      52.125  37.129  24.899  1.00  0.00     0.246 HD
ENDBRANCH   3   6
ENDBRANCH   1   2
BRANCH   1   8
ATOM      8  C   UNL     1      52.592  34.579  19.963  1.00  0.00     0.233 C 
ATOM      9  N   UNL     1      51.288  34.008  20.066  1.00  0.00    -0.326 N 
ATOM     10  O   UNL     1      53.086  34.730  18.863  1.00  0.00    -0.274 OA
ATOM     11  H   UNL     1      50.895  33.904  21.013  1.00  0.00     0.169 HD
BRANCH   9  12
ATOM     12  C   UNL     1      50.450  33.551  18.936  1.00  0.00     0.042 A 
ATOM     13  C   UNL     1      49.112  33.983  18.776  1.00  0.00     0.048 A 
ATOM     14  C   UNL     1      50.908  32.614  17.969  1.00  0.00     0.028 A 
ATOM     15  C   UNL     1      48.316  33.525  17.716  1.00  0.00     0.061 A 
ATOM     16  C   UNL     1      50.102  32.160  16.915  1.00  0.00     0.024 A 
ATOM     17  C   UNL     1      48.795  32.619  16.782  1.00  0.00     0.059 A 
ATOM     18  Cl  UNL     1      46.680  34.089  17.542  1.00  0.00    -0.083 Cl
ATOM     19  Cl  UNL     1      47.802  32.059  15.478  1.00  0.00    -0.083 Cl
ENDBRANCH   9  12
ENDBRANCH   1   8
TORSDOF 4
ENDMDL
MODEL 4
REMARK VINA RESULT:    -7.559      4.543      6.116
REMARK INTER + INTRA:          -9.122
REMARK INTER:                  -8.661
REMARK INTRA:                  -0.461
REMARK UNBOUND:                -0.017
REMARK SMILES O=C(CC(=O)Nc1ccc(Cl)c(Cl)c1)NO
REMARK SMILES IDX 3 1 2 2 15 3 1 4 16 6 4 8 6 9 5 10 7 12 14 13 8 14 12 15
REMARK SMILES IDX 9 16 10 17 13 18 11 19
REMARK H PARENT 15 5 16 7 6 11
ROOT
ATOM      1  C   UNL     1      53.323  37.539  23.756  1.00  0.00     0.202 C 
ENDROOT
BRANCH   1   2
ATOM      2  C   UNL     1      54.365  36.651  24.457  1.00  0.00     0.252 C 
ATOM      3  N   UNL     1      55.749  36.782  24.126  1.00  0.00    -0.237 N 
ATOM      4  O   UNL     1      53.987  35.848  25.287  1.00  0.00    -0.272 OA
ATOM      5  H   UNL     1      56.078  37.451  23.416  1.00  0.00     0.198 HD
BRANCH   3   6
ATOM      6  O   UNL     1      56.600  35.976  24.799  1.00  0.00    -0.289 OA
ATOM      7  H   UNL     1      56.665  35.104  24.336  1.00  0.00     0.246 HD
ENDBRANCH   3   6
ENDBRANCH   1   2
BRANCH   1   8
ATOM      8  C   UNL     1      52.825  36.956  22.441  1.00  0.00     0.233 C 
ATOM      9  N   UNL     1      52.718  35.548  22.230  1.00  0.00    -0.326 N 
ATOM     10  O   UNL     1      52.531  37.713  21.538  1.00  0.00    -0.274 OA
ATOM     11  H   UNL     1      52.965  34.935  23.020  1.00  0.00     0.169 HD
BRANCH   9  12
ATOM     12  C   UNL     1      52.284  34.890  20.979  1.00  0.00     0.042 A 
ATOM     13  C   UNL     1      50.946  34.476  20.778  1.00  0.00     0.048 A 
ATOM     14  C   UNL     1      53.183  34.583  19.920  1.00  0.00     0.028 A 
ATOM     15  C   UNL     1      50.548  33.829  19.598  1.00  0.00     0.061 A 
ATOM     16  C   UNL     1      52.775  33.933  18.746  1.00  0.00     0.024 A 
ATOM     17  C   UNL     1      51.447  33.554  18.579  1.00  0.00     0.059 A 
ATOM     18  Cl  UNL     1      48.891  33.348  19.379  1.00  0.00    -0.083 Cl
ATOM     19  Cl  UNL     1      50.945  32.753  17.127  1.00  0.00    -0.083 Cl
ENDBRANCH   9  12
ENDBRANCH   1   8
TORSDOF 4
ENDMDL
MODEL 5
REMARK VINA RESULT:    -7.476      1.606      2.366
REMARK INTER + INTRA:          -9.023
REMARK INTER:                  -8.953
REMARK INTRA:                  -0.070
REMARK UNBOUND:                -0.017
REMARK SMILES O=C(CC(=O)Nc1ccc(Cl)c(Cl)c1)NO
REMARK SMILES IDX 3 1 2 2 15 3 1 4 16 6 4 8 6 9 5 10 7 12 14 13 8 14 12 15
REMARK SMILES IDX 9 16 10 17 13 18 11 19
REMARK H PARENT 15 5 16 7 6 11
ROOT
ATOM      1  C   UNL     1      52.314  34.122  20.250  1.00  0.00     0.202 C 
ENDROOT
BRANCH   1   2
ATOM      2  C   UNL     1      52.596  35.351  21.130  1.00  0.00     0.252 C 
ATOM      3  N   UNL     1      51.809  35.585  22.299  1.00  0.00    -0.237 N 
ATOM      4  O   UNL     1      53.493  36.106  20.811  1.00  0.00    -0.272 OA
ATOM      5  H   UNL     1      51.038  34.958  22.572  1.00  0.00     0.198 HD
BRANCH   3   6
ATOM      6  O   UNL     1      52.133  36.677  23.026  1.00  0.00    -0.289 OA
ATOM      7  H   UNL     1      52.506  36.394  23.898  1.00  0.00     0.246 HD
ENDBRANCH   3   6
ENDBRANCH   1   2
BRANCH   1   8
ATOM      8  C   UNL     1      50.973  34.193  19.533  1.00  0.00     0.233 C 
ATOM      9  N   UNL     1      50.514  33.146  18.679  1.00  0.00    -0.326 N 
ATOM     10  O   UNL     1      50.283  35.182  19.678  1.00  0.00    -0.274 OA
ATOM     11  H   UNL     1      51.119  32.317  18.588  1.00  0.00     0.169 HD
BRANCH   9  12
ATOM     12  C   UNL     1      49.249  33.142  17.913  1.00  0.00     0.042 A 
ATOM     13  C   UNL     1      49.143  32.517  16.648  1.00  0.00     0.048 A 
ATOM     14  C   UNL     1      48.075  33.804  18.368  1.00  0.00     0.028 A 
ATOM     15  C   UNL     1      47.946  32.541  15.918  1.00  0.00     0.061 A 
ATOM     16  C   UNL     1      46.883  33.824  17.627  1.00  0.00     0.024 A 
ATOM     17  C   UNL     1      46.814  33.186  16.393  1.00  0.00     0.059 A 
ATOM     18  Cl  UNL     1      47.847  31.749  14.372  1.00  0.00    -0.083 Cl
ATOM     19  Cl  UNL     1      45.341  33.210  15.481  1.00  0.00    -0.083 Cl
ENDBRANCH   9  12
ENDBRANCH   1   8
TORSDOF 4
ENDMDL
MODEL 6
REMARK VINA RESULT:    -7.469      4.670      6.490
REMARK INTER + INTRA:          -9.014
REMARK INTER:                  -8.490
REMARK INTRA:                  -0.523
REMARK UNBOUND:                -0.017
REMARK SMILES O=C(CC(=O)Nc1ccc(Cl)c(Cl)c1)NO
REMARK SMILES IDX 3 1 2 2 15 3 1 4 16 6 4 8 6 9 5 10 7 12 14 13 8 14 12 15
REMARK SMILES IDX 9 16 10 17 13 18 11 19
REMARK H PARENT 15 5 16 7 6 11
ROOT
ATOM      1  C   UNL     1      53.644  37.608  23.645  1.00  0.00     0.202 C 
ENDROOT
BRANCH   1   2
ATOM      2  C   UNL     1      54.638  36.667  24.347  1.00  0.00     0.252 C 
ATOM      3  N   UNL     1      56.039  36.804  24.105  1.00  0.00    -0.237 N 
ATOM      4  O   UNL     1      54.207  35.816  25.100  1.00  0.00    -0.272 OA
ATOM      5  H   UNL     1      56.414  37.513  23.458  1.00  0.00     0.198 HD
BRANCH   3   6
ATOM      6  O   UNL     1      56.844  35.949  24.773  1.00  0.00    -0.289 OA
ATOM      7  H   UNL     1      56.298  35.378  25.369  1.00  0.00     0.246 HD
ENDBRANCH   3   6
ENDBRANCH   1   2
BRANCH   1   8
ATOM      8  C   UNL     1      52.981  36.980  22.427  1.00  0.00     0.233 C 
ATOM      9  N   UNL     1      52.912  35.565  22.248  1.00  0.00    -0.326 N 
ATOM     10  O   UNL     1      52.516  37.707  21.572  1.00  0.00    -0.274 OA
ATOM     11  H   UNL     1      53.306  34.978  22.997  1.00  0.00     0.169 HD
BRANCH   9  12
ATOM     12  C   UNL     1      52.325  34.866  21.084  1.00  0.00     0.042 A 
ATOM     13  C   UNL     1      53.066  34.631  19.902  1.00  0.00     0.048 A 
ATOM     14  C   UNL     1      50.971  34.430  21.053  1.00  0.00     0.028 A 
ATOM     15  C   UNL     1      52.494  33.990  18.794  1.00  0.00     0.061 A 
ATOM     16  C   UNL     1      50.408  33.793  19.937  1.00  0.00     0.024 A 
ATOM     17  C   UNL     1      51.173  33.566  18.798  1.00  0.00     0.059 A 
ATOM     18  Cl  UNL     1      53.439  33.704  17.362  1.00  0.00    -0.083 Cl
ATOM     19  Cl  UNL     1      50.476  32.776  17.422  1.00  0.00    -0.083 Cl
ENDBRANCH   9  12
ENDBRANCH   1   8
TORSDOF 4
ENDMDL
MODEL 7
REMARK VINA RESULT:    -7.054      5.721      7.393
REMARK INTER + INTRA:          -8.514
REMARK INTER:                  -8.376
REMARK INTRA:                  -0.139
REMARK UNBOUND:                -0.017
REMARK SMILES O=C(CC(=O)Nc1ccc(Cl)c(Cl)c1)NO
REMARK SMILES IDX 3 1 2 2 15 3 1 4 16 6 4 8 6 9 5 10 7 12 14 13 8 14 12 15
REMARK SMILES IDX 9 16 10 17 13 18 11 19
REMARK H PARENT 15 5 16 7 6 11
ROOT
ATOM      1  C   UNL     1      53.482  37.028  25.521  1.00  0.00     0.202 C 
ENDROOT
BRANCH   1   2
ATOM      2  C   UNL     1      52.852  38.419  25.335  1.00  0.00     0.252 C 
ATOM      3  N   UNL     1      52.164  39.040  26.423  1.00  0.00    -0.237 N 
ATOM      4  O   UNL     1      52.953  38.969  24.256  1.00  0.00    -0.272 OA
ATOM      5  H   UNL     1      52.062  38.577  27.338  1.00  0.00     0.198 HD
BRANCH   3   6
ATOM      6  O   UNL     1      51.655  40.268  26.181  1.00  0.00    -0.289 OA
ATOM      7  H   UNL     1      50.667  40.218  26.165  1.00  0.00     0.246 HD
ENDBRANCH   3   6
ENDBRANCH   1   2
BRANCH   1   8
ATOM      8  C   UNL     1      53.650  36.267  24.214  1.00  0.00     0.233 C 
ATOM      9  N   UNL     1      52.744  36.426  23.123  1.00  0.00    -0.326 N 
ATOM     10  O   UNL     1      54.573  35.485  24.106  1.00  0.00    -0.274 OA
ATOM     11  H   UNL     1      51.979  37.106  23.244  1.00  0.00     0.169 HD
BRANCH   9  12
ATOM     12  C   UNL     1      52.803  35.704  21.833  1.00  0.00     0.042 A 
ATOM     13  C   UNL     1      51.644  35.170  21.222  1.00  0.00     0.048 A 
ATOM     14  C   UNL     1      54.025  35.454  21.149  1.00  0.00     0.028 A 
ATOM     15  C   UNL     1      51.713  34.465  20.012  1.00  0.00     0.061 A 
ATOM     16  C   UNL     1      54.082  34.744  19.940  1.00  0.00     0.024 A 
ATOM     17  C   UNL     1      52.919  34.247  19.362  1.00  0.00     0.059 A 
ATOM     18  Cl  UNL     1      50.266  33.835  19.281  1.00  0.00    -0.083 Cl
ATOM     19  Cl  UNL     1      52.993  33.372  17.868  1.00  0.00    -0.083 Cl
ENDBRANCH   9  12
ENDBRANCH   1   8
TORSDOF 4
ENDMDL
MODEL 8
REMARK VINA RESULT:    -7.009      4.422      5.964
REMARK INTER + INTRA:          -8.460
REMARK INTER:                  -8.606
REMARK INTRA:                   0.146
REMARK UNBOUND:                -0.017
REMARK SMILES O=C(CC(=O)Nc1ccc(Cl)c(Cl)c1)NO
REMARK SMILES IDX 3 1 2 2 15 3 1 4 16 6 4 8 6 9 5 10 7 12 14 13 8 14 12 15
REMARK SMILES IDX 9 16 10 17 13 18 11 19
REMARK H PARENT 15 5 16 7 6 11
ROOT
ATOM      1  C   UNL     1      54.591  36.935  22.739  1.00  0.00     0.202 C 
ENDROOT
BRANCH   1   2
ATOM      2  C   UNL     1      53.519  37.591  23.625  1.00  0.00     0.252 C 
ATOM      3  N   UNL     1      53.306  37.115  24.955  1.00  0.00    -0.237 N 
ATOM      4  O   UNL     1      52.868  38.512  23.172  1.00  0.00    -0.272 OA
ATOM      5  H   UNL     1      53.844  36.328  25.344  1.00  0.00     0.198 HD
BRANCH   3   6
ATOM      6  O   UNL     1      52.358  37.757  25.672  1.00  0.00    -0.289 OA
ATOM      7  H   UNL     1      51.513  37.242  25.638  1.00  0.00     0.246 HD
ENDBRANCH   3   6
ENDBRANCH   1   2
BRANCH   1   8
ATOM      8  C   UNL     1      54.006  36.104  21.605  1.00  0.00     0.233 C 
ATOM      9  N   UNL     1      52.657  35.636  21.628  1.00  0.00    -0.326 N 
ATOM     10  O   UNL     1      54.716  35.815  20.663  1.00  0.00    -0.274 OA
ATOM     11  H   UNL     1      52.080  35.909  22.436  1.00  0.00     0.169 HD
BRANCH   9  12
ATOM     12  C   UNL     1      52.014  34.795  20.596  1.00  0.00     0.042 A 
ATOM     13  C   UNL     1      52.701  34.389  19.427  1.00  0.00     0.048 A 
ATOM     14  C   UNL     1      50.656  34.380  20.680  1.00  0.00     0.028 A 
ATOM     15  C   UNL     1      52.075  33.612  18.442  1.00  0.00     0.061 A 
ATOM     16  C   UNL     1      50.039  33.606  19.686  1.00  0.00     0.024 A 
ATOM     17  C   UNL     1      50.752  33.214  18.558  1.00  0.00     0.059 A 
ATOM     18  Cl  UNL     1      52.955  33.118  17.025  1.00  0.00    -0.083 Cl
ATOM     19  Cl  UNL     1      49.988  32.255  17.333  1.00  0.00    -0.083 Cl
ENDBRANCH   9  12
ENDBRANCH   1   8
TORSDOF 4
ENDMDL
MODEL 9
REMARK VINA RESULT:    -6.925      3.354      4.769
REMARK INTER + INTRA:          -8.359
REMARK INTER:                  -7.945
REMARK INTRA:                  -0.414
REMARK UNBOUND:                -0.017
REMARK SMILES O=C(CC(=O)Nc1ccc(Cl)c(Cl)c1)NO
REMARK SMILES IDX 3 1 2 2 15 3 1 4 16 6 4 8 6 9 5 10 7 12 14 13 8 14 12 15
REMARK SMILES IDX 9 16 10 17 13 18 11 19
REMARK H PARENT 15 5 16 7 6 11
ROOT
ATOM      1  C   UNL     1      52.478  36.115  22.628  1.00  0.00     0.202 C 
ENDROOT
BRANCH   1   2
ATOM      2  C   UNL     1      53.406  37.332  22.475  1.00  0.00     0.252 C 
ATOM      3  N   UNL     1      54.723  37.161  21.950  1.00  0.00    -0.237 N 
ATOM      4  O   UNL     1      52.996  38.427  22.808  1.00  0.00    -0.272 OA
ATOM      5  H   UNL     1      55.085  36.236  21.676  1.00  0.00     0.198 HD
BRANCH   3   6
ATOM      6  O   UNL     1      55.467  38.283  21.833  1.00  0.00    -0.289 OA
ATOM      7  H   UNL     1      55.827  38.534  22.720  1.00  0.00     0.246 HD
ENDBRANCH   3   6
ENDBRANCH   1   2
BRANCH   1   8
ATOM      8  C   UNL     1      51.918  35.618  21.303  1.00  0.00     0.233 C 
ATOM      9  N   UNL     1      51.180  34.400  21.202  1.00  0.00    -0.326 N 
ATOM     10  O   UNL     1      52.124  36.269  20.298  1.00  0.00    -0.274 OA
ATOM     11  H   UNL     1      51.014  33.879  22.075  1.00  0.00     0.169 HD
BRANCH   9  12
ATOM     12  C   UNL     1      50.632  33.819  19.957  1.00  0.00     0.042 A 
ATOM     13  C   UNL     1      51.472  33.334  18.926  1.00  0.00     0.048 A 
ATOM     14  C   UNL     1      49.237  33.753  19.690  1.00  0.00     0.028 A 
ATOM     15  C   UNL     1      50.944  32.808  17.738  1.00  0.00     0.061 A 
ATOM     16  C   UNL     1      48.720  33.228  18.496  1.00  0.00     0.024 A 
ATOM     17  C   UNL     1      49.577  32.747  17.511  1.00  0.00     0.059 A 
ATOM     18  Cl  UNL     1      52.005  32.207  16.498  1.00  0.00    -0.083 Cl
ATOM     19  Cl  UNL     1      48.936  32.097  16.039  1.00  0.00    -0.083 Cl
ENDBRANCH   9  12
ENDBRANCH   1   8
TORSDOF 4
ENDMDL
MODEL 10
REMARK VINA RESULT:    -6.905      1.522      1.846
REMARK INTER + INTRA:          -8.334
REMARK INTER:                  -7.830
REMARK INTRA:                  -0.504
REMARK UNBOUND:                -0.017
REMARK SMILES O=C(CC(=O)Nc1ccc(Cl)c(Cl)c1)NO
REMARK SMILES IDX 3 1 2 2 15 3 1 4 16 6 4 8 6 9 5 10 7 12 14 13 8 14 12 15
REMARK SMILES IDX 9 16 10 17 13 18 11 19
REMARK H PARENT 15 5 16 7 6 11
ROOT
ATOM      1  C   UNL     1      50.394  32.574  19.004  1.00  0.00     0.202 C 
ENDROOT
BRANCH   1   2
ATOM      2  C   UNL     1      50.250  33.931  19.714  1.00  0.00     0.252 C 
ATOM      3  N   UNL     1      50.810  34.116  21.015  1.00  0.00    -0.237 N 
ATOM      4  O   UNL     1      49.657  34.828  19.148  1.00  0.00    -0.272 OA
ATOM      5  H   UNL     1      51.304  33.358  21.508  1.00  0.00     0.198 HD
BRANCH   3   6
ATOM      6  O   UNL     1      50.654  35.342  21.561  1.00  0.00    -0.289 OA
ATOM      7  H   UNL     1      50.471  35.251  22.529  1.00  0.00     0.246 HD
ENDBRANCH   3   6
ENDBRANCH   1   2
BRANCH   1   8
ATOM      8  C   UNL     1      49.466  32.422  17.807  1.00  0.00     0.233 C 
ATOM      9  N   UNL     1      48.054  32.603  17.915  1.00  0.00    -0.326 N 
ATOM     10  O   UNL     1      49.942  32.116  16.732  1.00  0.00    -0.274 OA
ATOM     11  H   UNL     1      47.686  32.873  18.839  1.00  0.00     0.169 HD
BRANCH   9  12
ATOM     12  C   UNL     1      47.072  32.440  16.821  1.00  0.00     0.042 A 
ATOM     13  C   UNL     1      46.459  33.551  16.196  1.00  0.00     0.048 A 
ATOM     14  C   UNL     1      46.642  31.165  16.361  1.00  0.00     0.028 A 
ATOM     15  C   UNL     1      45.510  33.386  15.176  1.00  0.00     0.061 A 
ATOM     16  C   UNL     1      45.689  31.011  15.343  1.00  0.00     0.024 A 
ATOM     17  C   UNL     1      45.118  32.129  14.741  1.00  0.00     0.059 A 
ATOM     18  Cl  UNL     1      44.788  34.774  14.418  1.00  0.00    -0.083 Cl
ATOM     19  Cl  UNL     1      43.943  31.936  13.482  1.00  0.00    -0.083 Cl
ENDBRANCH   9  12
ENDBRANCH   1   8
TORSDOF 4
ENDMDL
MODEL 11
REMARK VINA RESULT:    -6.865      3.943      5.257
REMARK INTER + INTRA:          -8.287
REMARK INTER:                  -8.498
REMARK INTRA:                   0.211
REMARK UNBOUND:                -0.017
REMARK SMILES O=C(CC(=O)Nc1ccc(Cl)c(Cl)c1)NO
REMARK SMILES IDX 3 1 2 2 15 3 1 4 16 6 4 8 6 9 5 10 7 12 14 13 8 14 12 15
REMARK SMILES IDX 9 16 10 17 13 18 11 19
REMARK H PARENT 15 5 16 7 6 11
ROOT
ATOM      1  C   UNL     1      53.953  36.686  22.652  1.00  0.00     0.202 C 
ENDROOT
BRANCH   1   2
ATOM      2  C   UNL     1      53.287  37.517  23.762  1.00  0.00     0.252 C 
ATOM      3  N   UNL     1      52.988  36.913  25.021  1.00  0.00    -0.237 N 
ATOM      4  O   UNL     1      53.025  38.684  23.543  1.00  0.00    -0.272 OA
ATOM      5  H   UNL     1      53.194  35.922  25.213  1.00  0.00     0.198 HD
BRANCH   3   6
ATOM      6  O   UNL     1      52.419  37.716  25.947  1.00  0.00    -0.289 OA
ATOM      7  H   UNL     1      52.177  37.181  26.744  1.00  0.00     0.246 HD
ENDBRANCH   3   6
ENDBRANCH   1   2
BRANCH   1   8
ATOM      8  C   UNL     1      52.951  35.990  21.742  1.00  0.00     0.233 C 
ATOM      9  N   UNL     1      53.363  35.122  20.686  1.00  0.00    -0.326 N 
ATOM     10  O   UNL     1      51.766  36.196  21.908  1.00  0.00    -0.274 OA
ATOM     11  H   UNL     1      54.376  34.960  20.581  1.00  0.00     0.169 HD
BRANCH   9  12
ATOM     12  C   UNL     1      52.469  34.433  19.730  1.00  0.00     0.042 A 
ATOM     13  C   UNL     1      51.089  34.261  19.989  1.00  0.00     0.048 A 
ATOM     14  C   UNL     1      52.940  33.857  18.518  1.00  0.00     0.028 A 
ATOM     15  C   UNL     1      50.254  33.585  19.088  1.00  0.00     0.061 A 
ATOM     16  C   UNL     1      52.096  33.179  17.626  1.00  0.00     0.024 A 
ATOM     17  C   UNL     1      50.740  33.043  17.908  1.00  0.00     0.059 A 
ATOM     18  Cl  UNL     1      48.558  33.405  19.431  1.00  0.00    -0.083 Cl
ATOM     19  Cl  UNL     1      49.699  32.207  16.803  1.00  0.00    -0.083 Cl
ENDBRANCH   9  12
ENDBRANCH   1   8
TORSDOF 4
ENDMDL
MODEL 12
REMARK VINA RESULT:    -6.576      9.874     10.663
REMARK INTER + INTRA:          -7.939
REMARK INTER:                  -7.480
REMARK INTRA:                  -0.459
REMARK UNBOUND:                -0.017
REMARK SMILES O=C(CC(=O)Nc1ccc(Cl)c(Cl)c1)NO
REMARK SMILES IDX 3 1 2 2 15 3 1 4 16 6 4 8 6 9 5 10 7 12 14 13 8 14 12 15
REMARK SMILES IDX 9 16 10 17 13 18 11 19
REMARK H PARENT 15 5 16 7 6 11
ROOT
ATOM      1  C   UNL     1      53.928  36.800  24.192  1.00  0.00     0.202 C 
ENDROOT
BRANCH   1   2
ATOM      2  C   UNL     1      53.433  37.870  25.180  1.00  0.00     0.252 C 
ATOM      3  N   UNL     1      52.538  38.891  24.734  1.00  0.00    -0.237 N 
ATOM      4  O   UNL     1      53.817  37.826  26.332  1.00  0.00    -0.272 OA
ATOM      5  H   UNL     1      52.216  38.945  23.757  1.00  0.00     0.198 HD
BRANCH   3   6
ATOM      6  O   UNL     1      52.139  39.782  25.668  1.00  0.00    -0.289 OA
ATOM      7  H   UNL     1      51.447  39.370  26.243  1.00  0.00     0.246 HD
ENDBRANCH   3   6
ENDBRANCH   1   2
BRANCH   1   8
ATOM      8  C   UNL     1      54.613  37.387  22.966  1.00  0.00     0.233 C 
ATOM      9  N   UNL     1      55.876  36.909  22.503  1.00  0.00    -0.326 N 
ATOM     10  O   UNL     1      54.076  38.303  22.377  1.00  0.00    -0.274 OA
ATOM     11  H   UNL     1      56.297  36.123  23.019  1.00  0.00     0.169 HD
BRANCH   9  12
ATOM     12  C   UNL     1      56.634  37.439  21.349  1.00  0.00     0.042 A 
ATOM     13  C   UNL     1      57.348  38.659  21.422  1.00  0.00     0.048 A 
ATOM     14  C   UNL     1      56.657  36.793  20.083  1.00  0.00     0.028 A 
ATOM     15  C   UNL     1      58.044  39.167  20.315  1.00  0.00     0.061 A 
ATOM     16  C   UNL     1      57.354  37.312  18.981  1.00  0.00     0.024 A 
ATOM     17  C   UNL     1      58.056  38.508  19.095  1.00  0.00     0.059 A 
ATOM     18  Cl  UNL     1      58.923  40.662  20.444  1.00  0.00    -0.083 Cl
ATOM     19  Cl  UNL     1      58.918  39.146  17.734  1.00  0.00    -0.083 Cl
ENDBRANCH   9  12
ENDBRANCH   1   8
TORSDOF 4
ENDMDL
MODEL 13
REMARK VINA RESULT:    -6.482      4.418      6.984
REMARK INTER + INTRA:          -7.825
REMARK INTER:                  -7.471
REMARK INTRA:                  -0.354
REMARK UNBOUND:                -0.017
REMARK SMILES O=C(CC(=O)Nc1ccc(Cl)c(Cl)c1)NO
REMARK SMILES IDX 3 1 2 2 15 3 1 4 16 6 4 8 6 9 5 10 7 12 14 13 8 14 12 15
REMARK SMILES IDX 9 16 10 17 13 18 11 19
REMARK H PARENT 15 5 16 7 6 11
ROOT
ATOM      1  C   UNL     1      46.261  32.373  16.456  1.00  0.00     0.202 C 
ENDROOT
BRANCH   1   2
ATOM      2  C   UNL     1      45.695  33.178  15.274  1.00  0.00     0.252 C 
ATOM      3  N   UNL     1      45.101  34.457  15.504  1.00  0.00    -0.237 N 
ATOM      4  O   UNL     1      45.764  32.705  14.157  1.00  0.00    -0.272 OA
ATOM      5  H   UNL     1      45.027  34.861  16.449  1.00  0.00     0.198 HD
BRANCH   3   6
ATOM      6  O   UNL     1      44.643  35.105  14.411  1.00  0.00    -0.289 OA
ATOM      7  H   UNL     1      45.402  35.525  13.934  1.00  0.00     0.246 HD
ENDBRANCH   3   6
ENDBRANCH   1   2
BRANCH   1   8
ATOM      8  C   UNL     1      47.369  33.102  17.202  1.00  0.00     0.233 C 
ATOM      9  N   UNL     1      48.572  32.445  17.602  1.00  0.00    -0.326 N 
ATOM     10  O   UNL     1      47.215  34.273  17.483  1.00  0.00    -0.274 OA
ATOM     11  H   UNL     1      48.676  31.455  17.338  1.00  0.00     0.169 HD
BRANCH   9  12
ATOM     12  C   UNL     1      49.684  33.058  18.361  1.00  0.00     0.042 A 
ATOM     13  C   UNL     1      51.002  33.103  17.849  1.00  0.00     0.048 A 
ATOM     14  C   UNL     1      49.517  33.595  19.667  1.00  0.00     0.028 A 
ATOM     15  C   UNL     1      52.055  33.664  18.586  1.00  0.00     0.061 A 
ATOM     16  C   UNL     1      50.579  34.150  20.398  1.00  0.00     0.024 A 
ATOM     17  C   UNL     1      51.859  34.189  19.855  1.00  0.00     0.059 A 
ATOM     18  Cl  UNL     1      53.661  33.716  17.920  1.00  0.00    -0.083 Cl
ATOM     19  Cl  UNL     1      53.168  34.877  20.758  1.00  0.00    -0.083 Cl
ENDBRANCH   9  12
ENDBRANCH   1   8
TORSDOF 4
ENDMDL
MODEL 14
REMARK VINA RESULT:    -6.469      9.253     10.789
REMARK INTER + INTRA:          -7.810
REMARK INTER:                  -7.330
REMARK INTRA:                  -0.479
REMARK UNBOUND:                -0.017
REMARK SMILES O=C(CC(=O)Nc1ccc(Cl)c(Cl)c1)NO
REMARK SMILES IDX 3 1 2 2 15 3 1 4 16 6 4 8 6 9 5 10 7 12 14 13 8 14 12 15
REMARK SMILES IDX 9 16 10 17 13 18 11 19
REMARK H PARENT 15 5 16 7 6 11
ROOT
ATOM      1  C   UNL     1      54.671  37.117  23.738  1.00  0.00     0.202 C 
ENDROOT
BRANCH   1   2
ATOM      2  C   UNL     1      53.326  37.115  22.991  1.00  0.00     0.252 C 
ATOM      3  N   UNL     1      52.591  35.897  22.853  1.00  0.00    -0.237 N 
ATOM      4  O   UNL     1      52.911  38.159  22.529  1.00  0.00    -0.272 OA
ATOM      5  H   UNL     1      52.940  35.004  23.231  1.00  0.00     0.198 HD
BRANCH   3   6
ATOM      6  O   UNL     1      51.412  35.985  22.199  1.00  0.00    -0.289 OA
ATOM      7  H   UNL     1      51.168  36.938  22.085  1.00  0.00     0.246 HD
ENDBRANCH   3   6
ENDBRANCH   1   2
BRANCH   1   8
ATOM      8  C   UNL     1      55.858  37.420  22.834  1.00  0.00     0.233 C 
ATOM      9  N   UNL     1      55.697  37.713  21.446  1.00  0.00    -0.326 N 
ATOM     10  O   UNL     1      56.976  37.390  23.306  1.00  0.00    -0.274 OA
ATOM     11  H   UNL     1      54.734  37.741  21.081  1.00  0.00     0.169 HD
BRANCH   9  12
ATOM     12  C   UNL     1      56.788  37.981  20.484  1.00  0.00     0.042 A 
ATOM     13  C   UNL     1      57.518  39.194  20.501  1.00  0.00     0.048 A 
ATOM     14  C   UNL     1      57.144  37.069  19.453  1.00  0.00     0.028 A 
ATOM     15  C   UNL     1      58.534  39.450  19.569  1.00  0.00     0.061 A 
ATOM     16  C   UNL     1      58.160  37.337  18.524  1.00  0.00     0.024 A 
ATOM     17  C   UNL     1      58.865  38.535  18.581  1.00  0.00     0.059 A 
ATOM     18  Cl  UNL     1      59.421  40.945  19.628  1.00  0.00    -0.083 Cl
ATOM     19  Cl  UNL     1      60.121  38.863  17.433  1.00  0.00    -0.083 Cl
ENDBRANCH   9  12
ENDBRANCH   1   8
TORSDOF 4
ENDMDL
MODEL 15
REMARK VINA RESULT:    -6.377      9.406     10.467
REMARK INTER + INTRA:          -7.699
REMARK INTER:                  -7.378
REMARK INTRA:                  -0.321
REMARK UNBOUND:                -0.017
REMARK SMILES O=C(CC(=O)Nc1ccc(Cl)c(Cl)c1)NO
REMARK SMILES IDX 3 1 2 2 15 3 1 4 16 6 4 8 6 9 5 10 7 12 14 13 8 14 12 15
REMARK SMILES IDX 9 16 10 17 13 18 11 19
REMARK H PARENT 15 5 16 7 6 11
ROOT
ATOM      1  C   UNL     1      53.889  36.523  23.799  1.00  0.00     0.202 C 
ENDROOT
BRANCH   1   2
ATOM      2  C   UNL     1      53.541  37.389  25.022  1.00  0.00     0.252 C 
ATOM      3  N   UNL     1      52.472  38.334  24.944  1.00  0.00    -0.237 N 
ATOM      4  O   UNL     1      54.189  37.251  26.040  1.00  0.00    -0.272 OA
ATOM      5  H   UNL     1      51.925  38.467  24.082  1.00  0.00     0.198 HD
BRANCH   3   6
ATOM      6  O   UNL     1      52.222  39.043  26.067  1.00  0.00    -0.289 OA
ATOM      7  H   UNL     1      53.077  39.274  26.509  1.00  0.00     0.246 HD
ENDBRANCH   3   6
ENDBRANCH   1   2
BRANCH   1   8
ATOM      8  C   UNL     1      54.656  37.282  22.725  1.00  0.00     0.233 C 
ATOM      9  N   UNL     1      55.757  36.700  22.028  1.00  0.00    -0.326 N 
ATOM     10  O   UNL     1      54.332  38.424  22.470  1.00  0.00    -0.274 OA
ATOM     11  H   UNL     1      55.997  35.725  22.261  1.00  0.00     0.169 HD
BRANCH   9  12
ATOM     12  C   UNL     1      56.585  37.369  21.001  1.00  0.00     0.042 A 
ATOM     13  C   UNL     1      56.785  36.805  19.719  1.00  0.00     0.048 A 
ATOM     14  C   UNL     1      57.271  38.590  21.245  1.00  0.00     0.028 A 
ATOM     15  C   UNL     1      57.592  37.434  18.760  1.00  0.00     0.061 A 
ATOM     16  C   UNL     1      58.079  39.209  20.279  1.00  0.00     0.024 A 
ATOM     17  C   UNL     1      58.241  38.631  19.024  1.00  0.00     0.059 A 
ATOM     18  Cl  UNL     1      57.805  36.719  17.188  1.00  0.00    -0.083 Cl
ATOM     19  Cl  UNL     1      59.237  39.398  17.832  1.00  0.00    -0.083 Cl
ENDBRANCH   9  12
ENDBRANCH   1   8
TORSDOF 4
ENDMDL
MODEL 16
REMARK VINA RESULT:    -6.311      8.924     11.610
REMARK INTER + INTRA:          -7.619
REMARK INTER:                  -7.345
REMARK INTRA:                  -0.274
REMARK UNBOUND:                -0.017
REMARK SMILES O=C(CC(=O)Nc1ccc(Cl)c(Cl)c1)NO
REMARK SMILES IDX 3 1 2 2 15 3 1 4 16 6 4 8 6 9 5 10 7 12 14 13 8 14 12 15
REMARK SMILES IDX 9 16 10 17 13 18 11 19
REMARK H PARENT 15 5 16 7 6 11
ROOT
ATOM      1  C   UNL     1      54.044  36.295  22.636  1.00  0.00     0.202 C 
ENDROOT
BRANCH   1   2
ATOM      2  C   UNL     1      52.881  36.462  21.643  1.00  0.00     0.252 C 
ATOM      3  N   UNL     1      52.480  35.361  20.826  1.00  0.00    -0.237 N 
ATOM      4  O   UNL     1      52.320  37.537  21.573  1.00  0.00    -0.272 OA
ATOM      5  H   UNL     1      52.956  34.448  20.868  1.00  0.00     0.198 HD
BRANCH   3   6
ATOM      6  O   UNL     1      51.440  35.586  19.993  1.00  0.00    -0.289 OA
ATOM      7  H   UNL     1      51.717  35.400  19.061  1.00  0.00     0.246 HD
ENDBRANCH   3   6
ENDBRANCH   1   2
BRANCH   1   8
ATOM      8  C   UNL     1      55.188  37.267  22.387  1.00  0.00     0.233 C 
ATOM      9  N   UNL     1      56.301  36.932  21.558  1.00  0.00    -0.326 N 
ATOM     10  O   UNL     1      55.162  38.354  22.929  1.00  0.00    -0.274 OA
ATOM     11  H   UNL     1      56.285  36.006  21.105  1.00  0.00     0.169 HD
BRANCH   9  12
ATOM     12  C   UNL     1      57.473  37.792  21.290  1.00  0.00     0.042 A 
ATOM     13  C   UNL     1      58.704  37.609  21.963  1.00  0.00     0.048 A 
ATOM     14  C   UNL     1      57.431  38.886  20.382  1.00  0.00     0.028 A 
ATOM     15  C   UNL     1      59.803  38.445  21.720  1.00  0.00     0.061 A 
ATOM     16  C   UNL     1      58.536  39.719  20.149  1.00  0.00     0.024 A 
ATOM     17  C   UNL     1      59.734  39.498  20.820  1.00  0.00     0.059 A 
ATOM     18  Cl  UNL     1      61.306  38.181  22.555  1.00  0.00    -0.083 Cl
ATOM     19  Cl  UNL     1      61.098  40.527  20.530  1.00  0.00    -0.083 Cl
ENDBRANCH   9  12
ENDBRANCH   1   8
TORSDOF 4
ENDMDL
MODEL 17
REMARK VINA RESULT:    -6.300      9.062     11.457
REMARK INTER + INTRA:          -7.606
REMARK INTER:                  -7.187
REMARK INTRA:                  -0.419
REMARK UNBOUND:                -0.017
REMARK SMILES O=C(CC(=O)Nc1ccc(Cl)c(Cl)c1)NO
REMARK SMILES IDX 3 1 2 2 15 3 1 4 16 6 4 8 6 9 5 10 7 12 14 13 8 14 12 15
REMARK SMILES IDX 9 16 10 17 13 18 11 19
REMARK H PARENT 15 5 16 7 6 11
ROOT
ATOM      1  C   UNL     1      53.601  36.299  21.908  1.00  0.00     0.202 C 
ENDROOT
BRANCH   1   2
ATOM      2  C   UNL     1      53.248  36.782  23.325  1.00  0.00     0.252 C 
ATOM      3  N   UNL     1      53.466  35.922  24.445  1.00  0.00    -0.237 N 
ATOM      4  O   UNL     1      52.786  37.897  23.465  1.00  0.00    -0.272 OA
ATOM      5  H   UNL     1      53.846  34.971  24.336  1.00  0.00     0.198 HD
BRANCH   3   6
ATOM      6  O   UNL     1      53.146  36.429  25.655  1.00  0.00    -0.289 OA
ATOM      7  H   UNL     1      52.206  36.203  25.870  1.00  0.00     0.246 HD
ENDBRANCH   3   6
ENDBRANCH   1   2
BRANCH   1   8
ATOM      8  C   UNL     1      55.020  36.656  21.489  1.00  0.00     0.233 C 
ATOM      9  N   UNL     1      55.873  37.456  22.307  1.00  0.00    -0.326 N 
ATOM     10  O   UNL     1      55.430  36.265  20.414  1.00  0.00    -0.274 OA
ATOM     11  H   UNL     1      55.497  37.761  23.217  1.00  0.00     0.169 HD
BRANCH   9  12
ATOM     12  C   UNL     1      57.247  37.886  21.969  1.00  0.00     0.042 A 
ATOM     13  C   UNL     1      57.501  38.870  20.984  1.00  0.00     0.048 A 
ATOM     14  C   UNL     1      58.401  37.309  22.567  1.00  0.00     0.028 A 
ATOM     15  C   UNL     1      58.808  39.253  20.651  1.00  0.00     0.061 A 
ATOM     16  C   UNL     1      59.705  37.698  22.224  1.00  0.00     0.024 A 
ATOM     17  C   UNL     1      59.914  38.680  21.261  1.00  0.00     0.059 A 
ATOM     18  Cl  UNL     1      59.082  40.477  19.446  1.00  0.00    -0.083 Cl
ATOM     19  Cl  UNL     1      61.525  39.160  20.840  1.00  0.00    -0.083 Cl
ENDBRANCH   9  12
ENDBRANCH   1   8
TORSDOF 4
ENDMDL
MODEL 18
REMARK VINA RESULT:    -6.283      4.861      7.483
REMARK INTER + INTRA:          -7.585
REMARK INTER:                  -7.653
REMARK INTRA:                   0.067
REMARK UNBOUND:                -0.017
REMARK SMILES O=C(CC(=O)Nc1ccc(Cl)c(Cl)c1)NO
REMARK SMILES IDX 3 1 2 2 15 3 1 4 16 6 4 8 6 9 5 10 7 12 14 13 8 14 12 15
REMARK SMILES IDX 9 16 10 17 13 18 11 19
REMARK H PARENT 15 5 16 7 6 11
ROOT
ATOM      1  C   UNL     1      43.521  34.335  14.824  1.00  0.00     0.202 C 
ENDROOT
BRANCH   1   2
ATOM      2  C   UNL     1      43.703  33.577  13.498  1.00  0.00     0.252 C 
ATOM      3  N   UNL     1      43.697  34.293  12.262  1.00  0.00    -0.237 N 
ATOM      4  O   UNL     1      43.850  32.371  13.529  1.00  0.00    -0.272 OA
ATOM      5  H   UNL     1      43.561  35.314  12.225  1.00  0.00     0.198 HD
BRANCH   3   6
ATOM      6  O   UNL     1      43.880  33.555  11.146  1.00  0.00    -0.289 OA
ATOM      7  H   UNL     1      43.921  32.596  11.387  1.00  0.00     0.246 HD
ENDBRANCH   3   6
ENDBRANCH   1   2
BRANCH   1   8
ATOM      8  C   UNL     1      44.765  34.316  15.701  1.00  0.00     0.233 C 
ATOM      9  N   UNL     1      45.833  33.394  15.482  1.00  0.00    -0.326 N 
ATOM     10  O   UNL     1      44.840  35.097  16.629  1.00  0.00    -0.274 OA
ATOM     11  H   UNL     1      45.741  32.754  14.680  1.00  0.00     0.169 HD
BRANCH   9  12
ATOM     12  C   UNL     1      47.058  33.275  16.301  1.00  0.00     0.042 A 
ATOM     13  C   UNL     1      48.116  32.406  15.942  1.00  0.00     0.048 A 
ATOM     14  C   UNL     1      47.236  33.980  17.524  1.00  0.00     0.028 A 
ATOM     15  C   UNL     1      49.263  32.281  16.738  1.00  0.00     0.061 A 
ATOM     16  C   UNL     1      48.387  33.844  18.314  1.00  0.00     0.024 A 
ATOM     17  C   UNL     1      49.412  32.990  17.920  1.00  0.00     0.059 A 
ATOM     18  Cl  UNL     1      50.551  31.215  16.258  1.00  0.00    -0.083 Cl
ATOM     19  Cl  UNL     1      50.834  32.826  18.897  1.00  0.00    -0.083 Cl
ENDBRANCH   9  12
ENDBRANCH   1   8
TORSDOF 4
ENDMDL
MODEL 19
REMARK VINA RESULT:    -6.243      7.965      9.280
REMARK INTER + INTRA:          -7.537
REMARK INTER:                  -7.458
REMARK INTRA:                  -0.080
REMARK UNBOUND:                -0.017
REMARK SMILES O=C(CC(=O)Nc1ccc(Cl)c(Cl)c1)NO
REMARK SMILES IDX 3 1 2 2 15 3 1 4 16 6 4 8 6 9 5 10 7 12 14 13 8 14 12 15
REMARK SMILES IDX 9 16 10 17 13 18 11 19
REMARK H PARENT 15 5 16 7 6 11
ROOT
ATOM      1  C   UNL     1      53.804  37.600  25.756  1.00  0.00     0.202 C 
ENDROOT
BRANCH   1   2
ATOM      2  C   UNL     1      52.831  38.738  25.399  1.00  0.00     0.252 C 
ATOM      3  N   UNL     1      52.314  39.581  26.430  1.00  0.00    -0.237 N 
ATOM      4  O   UNL     1      52.519  38.898  24.236  1.00  0.00    -0.272 OA
ATOM      5  H   UNL     1      52.562  39.446  27.420  1.00  0.00     0.198 HD
BRANCH   3   6
ATOM      6  O   UNL     1      51.479  40.566  26.030  1.00  0.00    -0.289 OA
ATOM      7  H   UNL     1      51.258  41.144  26.801  1.00  0.00     0.246 HD
ENDBRANCH   3   6
ENDBRANCH   1   2
BRANCH   1   8
ATOM      8  C   UNL     1      54.215  36.764  24.554  1.00  0.00     0.233 C 
ATOM      9  N   UNL     1      54.428  37.342  23.266  1.00  0.00    -0.326 N 
ATOM     10  O   UNL     1      54.346  35.564  24.691  1.00  0.00    -0.274 OA
ATOM     11  H   UNL     1      54.319  38.363  23.187  1.00  0.00     0.169 HD
BRANCH   9  12
ATOM     12  C   UNL     1      54.790  36.607  22.034  1.00  0.00     0.042 A 
ATOM     13  C   UNL     1      55.874  37.007  21.218  1.00  0.00     0.048 A 
ATOM     14  C   UNL     1      54.050  35.489  21.562  1.00  0.00     0.028 A 
ATOM     15  C   UNL     1      56.195  36.320  20.038  1.00  0.00     0.061 A 
ATOM     16  C   UNL     1      54.378  34.810  20.378  1.00  0.00     0.024 A 
ATOM     17  C   UNL     1      55.460  35.225  19.609  1.00  0.00     0.059 A 
ATOM     18  Cl  UNL     1      57.544  36.829  19.066  1.00  0.00    -0.083 Cl
ATOM     19  Cl  UNL     1      55.864  34.384  18.149  1.00  0.00    -0.083 Cl
ENDBRANCH   9  12
ENDBRANCH   1   8
TORSDOF 4
ENDMDL
MODEL 20
REMARK VINA RESULT:    -6.032      4.792      6.836
REMARK INTER + INTRA:          -7.283
REMARK INTER:                  -6.766
REMARK INTRA:                  -0.518
REMARK UNBOUND:                -0.017
REMARK SMILES O=C(CC(=O)Nc1ccc(Cl)c(Cl)c1)NO
REMARK SMILES IDX 3 1 2 2 15 3 1 4 16 6 4 8 6 9 5 10 7 12 14 13 8 14 12 15
REMARK SMILES IDX 9 16 10 17 13 18 11 19
REMARK H PARENT 15 5 16 7 6 11
ROOT
ATOM      1  C   UNL     1      46.635  33.980  17.626  1.00  0.00     0.202 C 
ENDROOT
BRANCH   1   2
ATOM      2  C   UNL     1      45.595  33.968  16.492  1.00  0.00     0.252 C 
ATOM      3  N   UNL     1      45.079  32.725  16.013  1.00  0.00    -0.237 N 
ATOM      4  O   UNL     1      45.229  35.027  16.022  1.00  0.00    -0.272 OA
ATOM      5  H   UNL     1      45.392  31.822  16.396  1.00  0.00     0.198 HD
BRANCH   3   6
ATOM      6  O   UNL     1      44.158  32.804  15.028  1.00  0.00    -0.289 OA
ATOM      7  H   UNL     1      44.056  31.917  14.599  1.00  0.00     0.246 HD
ENDBRANCH   3   6
ENDBRANCH   1   2
BRANCH   1   8
ATOM      8  C   UNL     1      47.910  33.226  17.277  1.00  0.00     0.233 C 
ATOM      9  N   UNL     1      48.890  32.900  18.263  1.00  0.00    -0.326 N 
ATOM     10  O   UNL     1      48.107  32.909  16.121  1.00  0.00    -0.274 OA
ATOM     11  H   UNL     1      48.686  33.173  19.235  1.00  0.00     0.169 HD
BRANCH   9  12
ATOM     12  C   UNL     1      50.173  32.207  18.014  1.00  0.00     0.042 A 
ATOM     13  C   UNL     1      51.373  32.917  17.780  1.00  0.00     0.048 A 
ATOM     14  C   UNL     1      50.278  30.790  17.944  1.00  0.00     0.028 A 
ATOM     15  C   UNL     1      52.580  32.251  17.520  1.00  0.00     0.061 A 
ATOM     16  C   UNL     1      51.490  30.134  17.680  1.00  0.00     0.024 A 
ATOM     17  C   UNL     1      52.653  30.867  17.469  1.00  0.00     0.059 A 
ATOM     18  Cl  UNL     1      54.040  33.157  17.251  1.00  0.00    -0.083 Cl
ATOM     19  Cl  UNL     1      54.149  30.055  17.145  1.00  0.00    -0.083 Cl
ENDBRANCH   9  12
ENDBRANCH   1   8
TORSDOF 4
ENDMDL
