MODEL 1
REMARK VINA RESULT:    -5.161      0.000      0.000
REMARK INTER + INTRA:          -6.046
REMARK INTER:                  -5.916
REMARK INTRA:                  -0.131
REMARK UNBOUND:                -0.131
REMARK SMILES O=C(CS)Nc1ccc(Cl)c(Cl)c1
REMARK SMILES IDX 2 1 5 2 1 3 6 5 7 6 8 7 13 8 9 9 11 10 10 11 12 12 3 13 4 14
REMARK H PARENT 5 4 4 15
ROOT
ATOM      1  C   UNL     1      51.778  35.084  20.037  1.00  0.00     0.234 C 
ATOM      2  N   UNL     1      52.480  34.934  21.228  1.00  0.00    -0.325 N 
ATOM      3  O   UNL     1      51.481  36.246  19.686  1.00  0.00    -0.274 OA
ATOM      4  H   UNL     1      52.635  33.971  21.558  1.00  0.00     0.169 HD
ENDROOT
BRANCH   2   5
ATOM      5  C   UNL     1      52.991  35.955  22.013  1.00  0.00     0.042 A 
ATOM      6  C   UNL     1      54.332  36.399  21.783  1.00  0.00     0.028 A 
ATOM      7  C   UNL     1      54.881  37.462  22.482  1.00  0.00     0.024 A 
ATOM      8  C   UNL     1      52.223  36.652  22.959  1.00  0.00     0.048 A 
ATOM      9  C   UNL     1      54.114  38.137  23.416  1.00  0.00     0.059 A 
ATOM     10  C   UNL     1      52.783  37.723  23.662  1.00  0.00     0.061 A 
ATOM     11  Cl  UNL     1      54.817  39.440  24.262  1.00  0.00    -0.083 Cl
ATOM     12  Cl  UNL     1      51.806  38.524  24.856  1.00  0.00    -0.083 Cl
ENDBRANCH   2   5
BRANCH   1  13
ATOM     13  C   UNL     1      51.352  33.944  19.171  1.00  0.00     0.166 C 
BRANCH  13  14
ATOM     14  S   UNL     1      52.010  32.368  19.896  1.00  0.00    -0.169 SA
ATOM     15  H   UNL     1      51.076  31.829  20.742  1.00  0.00     0.103 HD
ENDBRANCH  13  14
ENDBRANCH   1  13
TORSDOF 3
ENDMDL
MODEL 2
REMARK VINA RESULT:    -4.947      0.794      1.969
REMARK INTER + INTRA:          -5.800
REMARK INTER:                  -5.650
REMARK INTRA:                  -0.150
REMARK UNBOUND:                -0.131
REMARK SMILES O=C(CS)Nc1ccc(Cl)c(Cl)c1
REMARK SMILES IDX 2 1 5 2 1 3 6 5 7 6 8 7 13 8 9 9 11 10 10 11 12 12 3 13 4 14
REMARK H PARENT 5 4 4 15
ROOT
ATOM      1  C   UNL     1      51.780  35.095  20.046  1.00  0.00     0.234 C 
ATOM      2  N   UNL     1      52.488  35.005  21.239  1.00  0.00    -0.325 N 
ATOM      3  O   UNL     1      51.442  36.236  19.661  1.00  0.00    -0.274 OA
ATOM      4  H   UNL     1      52.677  34.059  21.597  1.00  0.00     0.169 HD
ENDROOT
BRANCH   2   5
ATOM      5  C   UNL     1      52.965  36.066  21.992  1.00  0.00     0.042 A 
ATOM      6  C   UNL     1      52.119  36.637  22.995  1.00  0.00     0.028 A 
ATOM      7  C   UNL     1      52.557  37.651  23.832  1.00  0.00     0.024 A 
ATOM      8  C   UNL     1      54.282  36.544  21.895  1.00  0.00     0.048 A 
ATOM      9  C   UNL     1      53.856  38.117  23.722  1.00  0.00     0.059 A 
ATOM     10  C   UNL     1      54.718  37.567  22.742  1.00  0.00     0.061 A 
ATOM     11  Cl  UNL     1      54.368  39.366  24.764  1.00  0.00    -0.083 Cl
ATOM     12  Cl  UNL     1      56.343  38.157  22.551  1.00  0.00    -0.083 Cl
ENDBRANCH   2   5
BRANCH   1  13
ATOM     13  C   UNL     1      51.392  33.917  19.215  1.00  0.00     0.166 C 
BRANCH  13  14
ATOM     14  S   UNL     1      52.172  32.397  19.939  1.00  0.00    -0.169 SA
ATOM     15  H   UNL     1      52.876  32.737  21.065  1.00  0.00     0.103 HD
ENDBRANCH  13  14
ENDBRANCH   1  13
TORSDOF 3
ENDMDL
MODEL 3
REMARK VINA RESULT:    -4.839      4.698      6.587
REMARK INTER + INTRA:          -5.677
REMARK INTER:                  -5.581
REMARK INTRA:                  -0.096
REMARK UNBOUND:                -0.131
REMARK SMILES O=C(CS)Nc1ccc(Cl)c(Cl)c1
REMARK SMILES IDX 2 1 5 2 1 3 6 5 7 6 8 7 13 8 9 9 11 10 10 11 12 12 3 13 4 14
REMARK H PARENT 5 4 4 15
ROOT
ATOM      1  C   UNL     1      51.916  36.018  20.916  1.00  0.00     0.234 C 
ATOM      2  N   UNL     1      51.794  34.697  20.503  1.00  0.00    -0.325 N 
ATOM      3  O   UNL     1      51.721  36.910  20.061  1.00  0.00    -0.274 OA
ATOM      4  H   UNL     1      52.050  33.971  21.186  1.00  0.00     0.169 HD
ENDROOT
BRANCH   2   5
ATOM      5  C   UNL     1      51.360  34.262  19.261  1.00  0.00     0.042 A 
ATOM      6  C   UNL     1      52.302  33.652  18.374  1.00  0.00     0.028 A 
ATOM      7  C   UNL     1      51.923  33.130  17.148  1.00  0.00     0.024 A 
ATOM      8  C   UNL     1      50.013  34.293  18.865  1.00  0.00     0.048 A 
ATOM      9  C   UNL     1      50.592  33.172  16.768  1.00  0.00     0.059 A 
ATOM     10  C   UNL     1      49.636  33.765  17.627  1.00  0.00     0.061 A 
ATOM     11  Cl  UNL     1      50.154  32.524  15.253  1.00  0.00    -0.083 Cl
ATOM     12  Cl  UNL     1      47.963  33.870  17.163  1.00  0.00    -0.083 Cl
ENDBRANCH   2   5
BRANCH   1  13
ATOM     13  C   UNL     1      52.277  36.428  22.306  1.00  0.00     0.166 C 
BRANCH  13  14
ATOM     14  S   UNL     1      53.820  37.456  22.240  1.00  0.00    -0.169 SA
ATOM     15  H   UNL     1      54.229  37.748  23.515  1.00  0.00     0.103 HD
ENDBRANCH  13  14
ENDBRANCH   1  13
TORSDOF 3
ENDMDL
MODEL 4
REMARK VINA RESULT:    -4.589      2.172      2.250
REMARK INTER + INTRA:          -5.390
REMARK INTER:                  -5.270
REMARK INTRA:                  -0.120
REMARK UNBOUND:                -0.131
REMARK SMILES O=C(CS)Nc1ccc(Cl)c(Cl)c1
REMARK SMILES IDX 2 1 5 2 1 3 6 5 7 6 8 7 13 8 9 9 11 10 10 11 12 12 3 13 4 14
REMARK H PARENT 5 4 4 15
ROOT
ATOM      1  C   UNL     1      53.337  34.941  20.129  1.00  0.00     0.234 C 
ATOM      2  N   UNL     1      52.767  34.808  21.389  1.00  0.00    -0.325 N 
ATOM      3  O   UNL     1      54.414  35.571  20.046  1.00  0.00    -0.274 OA
ATOM      4  H   UNL     1      51.834  34.374  21.434  1.00  0.00     0.169 HD
ENDROOT
BRANCH   2   5
ATOM      5  C   UNL     1      53.331  35.204  22.591  1.00  0.00     0.042 A 
ATOM      6  C   UNL     1      54.098  34.257  23.340  1.00  0.00     0.028 A 
ATOM      7  C   UNL     1      54.749  34.605  24.513  1.00  0.00     0.024 A 
ATOM      8  C   UNL     1      53.278  36.525  23.065  1.00  0.00     0.048 A 
ATOM      9  C   UNL     1      54.684  35.910  24.972  1.00  0.00     0.059 A 
ATOM     10  C   UNL     1      53.937  36.870  24.248  1.00  0.00     0.061 A 
ATOM     11  Cl  UNL     1      55.494  36.309  26.418  1.00  0.00    -0.083 Cl
ATOM     12  Cl  UNL     1      53.802  38.508  24.817  1.00  0.00    -0.083 Cl
ENDBRANCH   2   5
BRANCH   1  13
ATOM     13  C   UNL     1      52.734  34.390  18.878  1.00  0.00     0.166 C 
BRANCH  13  14
ATOM     14  S   UNL     1      51.405  33.181  19.342  1.00  0.00    -0.169 SA
ATOM     15  H   UNL     1      51.945  32.182  20.109  1.00  0.00     0.103 HD
ENDBRANCH  13  14
ENDBRANCH   1  13
TORSDOF 3
ENDMDL
MODEL 5
REMARK VINA RESULT:    -4.563      6.539      8.988
REMARK INTER + INTRA:          -5.360
REMARK INTER:                  -5.351
REMARK INTRA:                  -0.009
REMARK UNBOUND:                -0.131
REMARK SMILES O=C(CS)Nc1ccc(Cl)c(Cl)c1
REMARK SMILES IDX 2 1 5 2 1 3 6 5 7 6 8 7 13 8 9 9 11 10 10 11 12 12 3 13 4 14
REMARK H PARENT 5 4 4 15
ROOT
ATOM      1  C   UNL     1      50.560  33.585  18.059  1.00  0.00     0.234 C 
ATOM      2  N   UNL     1      49.244  33.158  17.930  1.00  0.00    -0.325 N 
ATOM      3  O   UNL     1      51.130  34.016  17.033  1.00  0.00    -0.274 OA
ATOM      4  H   UNL     1      48.816  32.715  18.755  1.00  0.00     0.169 HD
ENDROOT
BRANCH   2   5
ATOM      5  C   UNL     1      48.452  33.270  16.798  1.00  0.00     0.042 A 
ATOM      6  C   UNL     1      48.713  32.413  15.683  1.00  0.00     0.028 A 
ATOM      7  C   UNL     1      47.917  32.422  14.549  1.00  0.00     0.024 A 
ATOM      8  C   UNL     1      47.332  34.115  16.728  1.00  0.00     0.048 A 
ATOM      9  C   UNL     1      46.819  33.264  14.491  1.00  0.00     0.059 A 
ATOM     10  C   UNL     1      46.532  34.120  15.581  1.00  0.00     0.061 A 
ATOM     11  Cl  UNL     1      45.857  33.255  13.083  1.00  0.00    -0.083 Cl
ATOM     12  Cl  UNL     1      45.184  35.217  15.523  1.00  0.00    -0.083 Cl
ENDBRANCH   2   5
BRANCH   1  13
ATOM     13  C   UNL     1      51.329  33.544  19.339  1.00  0.00     0.166 C 
BRANCH  13  14
ATOM     14  S   UNL     1      51.405  31.787  19.930  1.00  0.00    -0.169 SA
ATOM     15  H   UNL     1      50.134  31.285  20.038  1.00  0.00     0.103 HD
ENDBRANCH  13  14
ENDBRANCH   1  13
TORSDOF 3
ENDMDL
MODEL 6
REMARK VINA RESULT:    -4.545      5.233      7.556
REMARK INTER + INTRA:          -5.340
REMARK INTER:                  -5.279
REMARK INTRA:                  -0.061
REMARK UNBOUND:                -0.131
REMARK SMILES O=C(CS)Nc1ccc(Cl)c(Cl)c1
REMARK SMILES IDX 2 1 5 2 1 3 6 5 7 6 8 7 13 8 9 9 11 10 10 11 12 12 3 13 4 14
REMARK H PARENT 5 4 4 15
ROOT
ATOM      1  C   UNL     1      51.335  35.037  19.678  1.00  0.00     0.234 C 
ATOM      2  N   UNL     1      50.918  33.720  19.831  1.00  0.00    -0.325 N 
ATOM      3  O   UNL     1      51.100  35.592  18.583  1.00  0.00    -0.274 OA
ATOM      4  H   UNL     1      51.200  33.241  20.697  1.00  0.00     0.169 HD
ENDROOT
BRANCH   2   5
ATOM      5  C   UNL     1      50.158  32.990  18.931  1.00  0.00     0.042 A 
ATOM      6  C   UNL     1      50.740  31.840  18.308  1.00  0.00     0.028 A 
ATOM      7  C   UNL     1      50.015  31.025  17.454  1.00  0.00     0.024 A 
ATOM      8  C   UNL     1      48.804  33.259  18.676  1.00  0.00     0.048 A 
ATOM      9  C   UNL     1      48.681  31.304  17.206  1.00  0.00     0.059 A 
ATOM     10  C   UNL     1      48.078  32.432  17.813  1.00  0.00     0.061 A 
ATOM     11  Cl  UNL     1      47.815  30.284  16.151  1.00  0.00    -0.083 Cl
ATOM     12  Cl  UNL     1      46.416  32.834  17.493  1.00  0.00    -0.083 Cl
ENDBRANCH   2   5
BRANCH   1  13
ATOM     13  C   UNL     1      52.053  35.813  20.733  1.00  0.00     0.166 C 
BRANCH  13  14
ATOM     14  S   UNL     1      53.566  34.866  21.239  1.00  0.00    -0.169 SA
ATOM     15  H   UNL     1      54.407  34.740  20.164  1.00  0.00     0.103 HD
ENDBRANCH  13  14
ENDBRANCH   1  13
TORSDOF 3
ENDMDL
MODEL 7
REMARK VINA RESULT:    -4.524      2.376      2.443
REMARK INTER + INTRA:          -5.315
REMARK INTER:                  -5.190
REMARK INTRA:                  -0.126
REMARK UNBOUND:                -0.131
REMARK SMILES O=C(CS)Nc1ccc(Cl)c(Cl)c1
REMARK SMILES IDX 2 1 5 2 1 3 6 5 7 6 8 7 13 8 9 9 11 10 10 11 12 12 3 13 4 14
REMARK H PARENT 5 4 4 15
ROOT
ATOM      1  C   UNL     1      54.763  33.377  20.969  1.00  0.00     0.234 C 
ATOM      2  N   UNL     1      54.777  33.593  22.341  1.00  0.00    -0.325 N 
ATOM      3  O   UNL     1      54.416  34.330  20.238  1.00  0.00    -0.274 OA
ATOM      4  H   UNL     1      54.970  32.777  22.939  1.00  0.00     0.169 HD
ENDROOT
BRANCH   2   5
ATOM      5  C   UNL     1      54.557  34.801  22.984  1.00  0.00     0.042 A 
ATOM      6  C   UNL     1      55.653  35.706  23.151  1.00  0.00     0.028 A 
ATOM      7  C   UNL     1      55.489  36.958  23.720  1.00  0.00     0.024 A 
ATOM      8  C   UNL     1      53.284  35.232  23.390  1.00  0.00     0.048 A 
ATOM      9  C   UNL     1      54.229  37.369  24.120  1.00  0.00     0.059 A 
ATOM     10  C   UNL     1      53.124  36.497  23.963  1.00  0.00     0.061 A 
ATOM     11  Cl  UNL     1      54.057  38.915  24.818  1.00  0.00    -0.083 Cl
ATOM     12  Cl  UNL     1      51.536  36.966  24.492  1.00  0.00    -0.083 Cl
ENDBRANCH   2   5
BRANCH   1  13
ATOM     13  C   UNL     1      55.123  32.078  20.325  1.00  0.00     0.166 C 
BRANCH  13  14
ATOM     14  S   UNL     1      53.568  31.104  20.045  1.00  0.00    -0.169 SA
ATOM     15  H   UNL     1      52.777  31.176  21.161  1.00  0.00     0.103 HD
ENDBRANCH  13  14
ENDBRANCH   1  13
TORSDOF 3
ENDMDL
MODEL 8
REMARK VINA RESULT:    -4.473      2.490      3.104
REMARK INTER + INTRA:          -5.257
REMARK INTER:                  -5.188
REMARK INTRA:                  -0.070
REMARK UNBOUND:                -0.131
REMARK SMILES O=C(CS)Nc1ccc(Cl)c(Cl)c1
REMARK SMILES IDX 2 1 5 2 1 3 6 5 7 6 8 7 13 8 9 9 11 10 10 11 12 12 3 13 4 14
REMARK H PARENT 5 4 4 15
ROOT
ATOM      1  C   UNL     1      52.149  35.573  20.673  1.00  0.00     0.234 C 
ATOM      2  N   UNL     1      52.861  34.715  21.502  1.00  0.00    -0.325 N 
ATOM      3  O   UNL     1      52.138  36.787  20.972  1.00  0.00    -0.274 OA
ATOM      4  H   UNL     1      52.784  33.707  21.304  1.00  0.00     0.169 HD
ENDROOT
BRANCH   2   5
ATOM      5  C   UNL     1      53.665  35.083  22.569  1.00  0.00     0.042 A 
ATOM      6  C   UNL     1      53.047  35.434  23.811  1.00  0.00     0.028 A 
ATOM      7  C   UNL     1      53.793  35.743  24.937  1.00  0.00     0.024 A 
ATOM      8  C   UNL     1      55.067  35.029  22.526  1.00  0.00     0.048 A 
ATOM      9  C   UNL     1      55.175  35.690  24.880  1.00  0.00     0.059 A 
ATOM     10  C   UNL     1      55.814  35.341  23.666  1.00  0.00     0.061 A 
ATOM     11  Cl  UNL     1      56.066  36.075  26.282  1.00  0.00    -0.083 Cl
ATOM     12  Cl  UNL     1      57.548  35.304  23.549  1.00  0.00    -0.083 Cl
ENDBRANCH   2   5
BRANCH   1  13
ATOM     13  C   UNL     1      51.391  35.129  19.465  1.00  0.00     0.166 C 
BRANCH  13  14
ATOM     14  S   UNL     1      52.475  34.002  18.465  1.00  0.00    -0.169 SA
ATOM     15  H   UNL     1      53.722  34.557  18.344  1.00  0.00     0.103 HD
ENDBRANCH  13  14
ENDBRANCH   1  13
TORSDOF 3
ENDMDL
MODEL 9
REMARK VINA RESULT:    -4.419      4.499      5.530
REMARK INTER + INTRA:          -5.196
REMARK INTER:                  -5.073
REMARK INTRA:                  -0.123
REMARK UNBOUND:                -0.131
REMARK SMILES O=C(CS)Nc1ccc(Cl)c(Cl)c1
REMARK SMILES IDX 2 1 5 2 1 3 6 5 7 6 8 7 13 8 9 9 11 10 10 11 12 12 3 13 4 14
REMARK H PARENT 5 4 4 15
ROOT
ATOM      1  C   UNL     1      54.585  37.436  23.381  1.00  0.00     0.234 C 
ATOM      2  N   UNL     1      55.841  37.105  22.887  1.00  0.00    -0.325 N 
ATOM      3  O   UNL     1      54.104  38.539  23.040  1.00  0.00    -0.274 OA
ATOM      4  H   UNL     1      56.270  36.241  23.249  1.00  0.00     0.169 HD
ENDROOT
BRANCH   2   5
ATOM      5  C   UNL     1      56.572  37.823  21.955  1.00  0.00     0.042 A 
ATOM      6  C   UNL     1      56.318  37.610  20.563  1.00  0.00     0.028 A 
ATOM      7  C   UNL     1      56.961  38.344  19.580  1.00  0.00     0.024 A 
ATOM      8  C   UNL     1      57.482  38.833  22.308  1.00  0.00     0.048 A 
ATOM      9  C   UNL     1      57.860  39.334  19.941  1.00  0.00     0.059 A 
ATOM     10  C   UNL     1      58.128  39.571  21.311  1.00  0.00     0.061 A 
ATOM     11  Cl  UNL     1      58.637  40.221  18.711  1.00  0.00    -0.083 Cl
ATOM     12  Cl  UNL     1      59.280  40.778  21.799  1.00  0.00    -0.083 Cl
ENDBRANCH   2   5
BRANCH   1  13
ATOM     13  C   UNL     1      53.792  36.563  24.298  1.00  0.00     0.166 C 
BRANCH  13  14
ATOM     14  S   UNL     1      52.011  37.078  24.214  1.00  0.00    -0.169 SA
ATOM     15  H   UNL     1      51.887  38.161  23.383  1.00  0.00     0.103 HD
ENDBRANCH  13  14
ENDBRANCH   1  13
TORSDOF 3
ENDMDL
MODEL 10
REMARK VINA RESULT:    -4.326      5.510      7.797
REMARK INTER + INTRA:          -5.089
REMARK INTER:                  -4.970
REMARK INTRA:                  -0.119
REMARK UNBOUND:                -0.131
REMARK SMILES O=C(CS)Nc1ccc(Cl)c(Cl)c1
REMARK SMILES IDX 2 1 5 2 1 3 6 5 7 6 8 7 13 8 9 9 11 10 10 11 12 12 3 13 4 14
REMARK H PARENT 5 4 4 15
ROOT
ATOM      1  C   UNL     1      51.303  35.007  19.685  1.00  0.00     0.234 C 
ATOM      2  N   UNL     1      51.025  33.658  19.875  1.00  0.00    -0.325 N 
ATOM      3  O   UNL     1      51.018  35.502  18.573  1.00  0.00    -0.274 OA
ATOM      4  H   UNL     1      51.351  33.237  20.756  1.00  0.00     0.169 HD
ENDROOT
BRANCH   2   5
ATOM      5  C   UNL     1      50.352  32.827  18.995  1.00  0.00     0.042 A 
ATOM      6  C   UNL     1      48.923  32.879  18.950  1.00  0.00     0.028 A 
ATOM      7  C   UNL     1      48.190  32.127  18.046  1.00  0.00     0.024 A 
ATOM      8  C   UNL     1      51.007  32.005  18.063  1.00  0.00     0.048 A 
ATOM      9  C   UNL     1      48.849  31.318  17.135  1.00  0.00     0.059 A 
ATOM     10  C   UNL     1      50.263  31.250  17.152  1.00  0.00     0.061 A 
ATOM     11  Cl  UNL     1      47.922  30.404  16.034  1.00  0.00    -0.083 Cl
ATOM     12  Cl  UNL     1      51.119  30.213  16.050  1.00  0.00    -0.083 Cl
ENDBRANCH   2   5
BRANCH   1  13
ATOM     13  C   UNL     1      51.930  35.884  20.719  1.00  0.00     0.166 C 
BRANCH  13  14
ATOM     14  S   UNL     1      53.612  35.214  21.125  1.00  0.00    -0.169 SA
ATOM     15  H   UNL     1      54.570  35.996  20.534  1.00  0.00     0.103 HD
ENDBRANCH  13  14
ENDBRANCH   1  13
TORSDOF 3
ENDMDL
MODEL 11
REMARK VINA RESULT:    -4.325      8.078      9.239
REMARK INTER + INTRA:          -5.087
REMARK INTER:                  -4.927
REMARK INTRA:                  -0.160
REMARK UNBOUND:                -0.131
REMARK SMILES O=C(CS)Nc1ccc(Cl)c(Cl)c1
REMARK SMILES IDX 2 1 5 2 1 3 6 5 7 6 8 7 13 8 9 9 11 10 10 11 12 12 3 13 4 14
REMARK H PARENT 5 4 4 15
ROOT
ATOM      1  C   UNL     1      49.498  31.802  18.382  1.00  0.00     0.234 C 
ATOM      2  N   UNL     1      48.734  31.788  17.221  1.00  0.00    -0.325 N 
ATOM      3  O   UNL     1      49.155  32.594  19.287  1.00  0.00    -0.274 OA
ATOM      4  H   UNL     1      49.079  31.206  16.445  1.00  0.00     0.169 HD
ENDROOT
BRANCH   2   5
ATOM      5  C   UNL     1      47.553  32.481  17.006  1.00  0.00     0.042 A 
ATOM      6  C   UNL     1      47.605  33.744  16.336  1.00  0.00     0.028 A 
ATOM      7  C   UNL     1      46.457  34.456  16.026  1.00  0.00     0.024 A 
ATOM      8  C   UNL     1      46.289  31.956  17.320  1.00  0.00     0.048 A 
ATOM      9  C   UNL     1      45.217  33.930  16.346  1.00  0.00     0.059 A 
ATOM     10  C   UNL     1      45.135  32.679  17.005  1.00  0.00     0.061 A 
ATOM     11  Cl  UNL     1      43.822  34.828  15.953  1.00  0.00    -0.083 Cl
ATOM     12  Cl  UNL     1      43.595  32.009  17.456  1.00  0.00    -0.083 Cl
ENDBRANCH   2   5
BRANCH   1  13
ATOM     13  C   UNL     1      50.700  30.944  18.600  1.00  0.00     0.166 C 
BRANCH  13  14
ATOM     14  S   UNL     1      51.502  30.617  16.959  1.00  0.00    -0.169 SA
ATOM     15  H   UNL     1      50.573  30.755  15.961  1.00  0.00     0.103 HD
ENDBRANCH  13  14
ENDBRANCH   1  13
TORSDOF 3
ENDMDL
MODEL 12
REMARK VINA RESULT:    -4.281      3.738      4.543
REMARK INTER + INTRA:          -5.038
REMARK INTER:                  -4.889
REMARK INTRA:                  -0.148
REMARK UNBOUND:                -0.131
REMARK SMILES O=C(CS)Nc1ccc(Cl)c(Cl)c1
REMARK SMILES IDX 2 1 5 2 1 3 6 5 7 6 8 7 13 8 9 9 11 10 10 11 12 12 3 13 4 14
REMARK H PARENT 5 4 4 15
ROOT
ATOM      1  C   UNL     1      56.607  37.719  19.854  1.00  0.00     0.234 C 
ATOM      2  N   UNL     1      55.711  36.794  20.376  1.00  0.00    -0.325 N 
ATOM      3  O   UNL     1      56.557  38.886  20.302  1.00  0.00    -0.274 OA
ATOM      4  H   UNL     1      55.694  35.864  19.934  1.00  0.00     0.169 HD
ENDROOT
BRANCH   2   5
ATOM      5  C   UNL     1      54.838  37.001  21.432  1.00  0.00     0.042 A 
ATOM      6  C   UNL     1      53.474  37.327  21.148  1.00  0.00     0.028 A 
ATOM      7  C   UNL     1      52.533  37.477  22.153  1.00  0.00     0.024 A 
ATOM      8  C   UNL     1      55.199  36.803  22.774  1.00  0.00     0.048 A 
ATOM      9  C   UNL     1      52.903  37.284  23.474  1.00  0.00     0.059 A 
ATOM     10  C   UNL     1      54.245  36.956  23.784  1.00  0.00     0.061 A 
ATOM     11  Cl  UNL     1      51.724  37.476  24.690  1.00  0.00    -0.083 Cl
ATOM     12  Cl  UNL     1      54.752  36.746  25.434  1.00  0.00    -0.083 Cl
ENDBRANCH   2   5
BRANCH   1  13
ATOM     13  C   UNL     1      57.607  37.405  18.791  1.00  0.00     0.166 C 
BRANCH  13  14
ATOM     14  S   UNL     1      58.336  38.995  18.172  1.00  0.00    -0.169 SA
ATOM     15  H   UNL     1      59.646  38.792  17.824  1.00  0.00     0.103 HD
ENDBRANCH  13  14
ENDBRANCH   1  13
TORSDOF 3
ENDMDL
MODEL 13
REMARK VINA RESULT:    -4.198      2.288      2.906
REMARK INTER + INTRA:          -4.942
REMARK INTER:                  -4.795
REMARK INTRA:                  -0.147
REMARK UNBOUND:                -0.131
REMARK SMILES O=C(CS)Nc1ccc(Cl)c(Cl)c1
REMARK SMILES IDX 2 1 5 2 1 3 6 5 7 6 8 7 13 8 9 9 11 10 10 11 12 12 3 13 4 14
REMARK H PARENT 5 4 4 15
ROOT
ATOM      1  C   UNL     1      54.171  33.129  20.955  1.00  0.00     0.234 C 
ATOM      2  N   UNL     1      54.770  33.581  22.125  1.00  0.00    -0.325 N 
ATOM      3  O   UNL     1      53.318  33.870  20.421  1.00  0.00    -0.274 OA
ATOM      4  H   UNL     1      55.397  32.924  22.610  1.00  0.00     0.169 HD
ENDROOT
BRANCH   2   5
ATOM      5  C   UNL     1      54.604  34.830  22.703  1.00  0.00     0.042 A 
ATOM      6  C   UNL     1      53.612  34.995  23.720  1.00  0.00     0.028 A 
ATOM      7  C   UNL     1      53.442  36.197  24.389  1.00  0.00     0.024 A 
ATOM      8  C   UNL     1      55.437  35.923  22.415  1.00  0.00     0.048 A 
ATOM      9  C   UNL     1      54.267  37.269  24.091  1.00  0.00     0.059 A 
ATOM     10  C   UNL     1      55.261  37.133  23.093  1.00  0.00     0.061 A 
ATOM     11  Cl  UNL     1      54.034  38.735  24.930  1.00  0.00    -0.083 Cl
ATOM     12  Cl  UNL     1      56.286  38.472  22.667  1.00  0.00    -0.083 Cl
ENDBRANCH   2   5
BRANCH   1  13
ATOM     13  C   UNL     1      54.476  31.814  20.316  1.00  0.00     0.166 C 
BRANCH  13  14
ATOM     14  S   UNL     1      53.136  31.424  19.093  1.00  0.00    -0.169 SA
ATOM     15  H   UNL     1      53.267  32.236  17.997  1.00  0.00     0.103 HD
ENDBRANCH  13  14
ENDBRANCH   1  13
TORSDOF 3
ENDMDL
MODEL 14
REMARK VINA RESULT:    -4.166      4.586      5.620
REMARK INTER + INTRA:          -4.906
REMARK INTER:                  -4.757
REMARK INTRA:                  -0.149
REMARK UNBOUND:                -0.131
REMARK SMILES O=C(CS)Nc1ccc(Cl)c(Cl)c1
REMARK SMILES IDX 2 1 5 2 1 3 6 5 7 6 8 7 13 8 9 9 11 10 10 11 12 12 3 13 4 14
REMARK H PARENT 5 4 4 15
ROOT
ATOM      1  C   UNL     1      48.896  33.655  17.590  1.00  0.00     0.234 C 
ATOM      2  N   UNL     1      49.347  33.652  18.905  1.00  0.00    -0.325 N 
ATOM      3  O   UNL     1      49.757  33.631  16.685  1.00  0.00    -0.274 OA
ATOM      4  H   UNL     1      48.637  33.770  19.641  1.00  0.00     0.169 HD
ENDROOT
BRANCH   2   5
ATOM      5  C   UNL     1      50.661  33.506  19.321  1.00  0.00     0.042 A 
ATOM      6  C   UNL     1      51.421  34.677  19.636  1.00  0.00     0.028 A 
ATOM      7  C   UNL     1      52.715  34.600  20.125  1.00  0.00     0.024 A 
ATOM      8  C   UNL     1      51.257  32.256  19.553  1.00  0.00     0.048 A 
ATOM      9  C   UNL     1      53.293  33.361  20.344  1.00  0.00     0.059 A 
ATOM     10  C   UNL     1      52.563  32.185  20.047  1.00  0.00     0.061 A 
ATOM     11  Cl  UNL     1      54.886  33.298  20.946  1.00  0.00    -0.083 Cl
ATOM     12  Cl  UNL     1      53.273  30.614  20.272  1.00  0.00    -0.083 Cl
ENDBRANCH   2   5
BRANCH   1  13
ATOM     13  C   UNL     1      47.454  33.698  17.204  1.00  0.00     0.166 C 
BRANCH  13  14
ATOM     14  S   UNL     1      47.312  33.309  15.395  1.00  0.00    -0.169 SA
ATOM     15  H   UNL     1      47.689  34.403  14.661  1.00  0.00     0.103 HD
ENDBRANCH  13  14
ENDBRANCH   1  13
TORSDOF 3
ENDMDL
MODEL 15
REMARK VINA RESULT:    -4.134      4.167      5.205
REMARK INTER + INTRA:          -4.868
REMARK INTER:                  -4.762
REMARK INTRA:                  -0.107
REMARK UNBOUND:                -0.131
REMARK SMILES O=C(CS)Nc1ccc(Cl)c(Cl)c1
REMARK SMILES IDX 2 1 5 2 1 3 6 5 7 6 8 7 13 8 9 9 11 10 10 11 12 12 3 13 4 14
REMARK H PARENT 5 4 4 15
ROOT
ATOM      1  C   UNL     1      53.819  37.170  22.079  1.00  0.00     0.234 C 
ATOM      2  N   UNL     1      55.196  37.000  22.167  1.00  0.00    -0.325 N 
ATOM      3  O   UNL     1      53.401  38.200  21.508  1.00  0.00    -0.274 OA
ATOM      4  H   UNL     1      55.531  36.201  22.722  1.00  0.00     0.169 HD
ENDROOT
BRANCH   2   5
ATOM      5  C   UNL     1      56.161  37.803  21.579  1.00  0.00     0.042 A 
ATOM      6  C   UNL     1      56.950  38.658  22.412  1.00  0.00     0.028 A 
ATOM      7  C   UNL     1      57.979  39.432  21.900  1.00  0.00     0.024 A 
ATOM      8  C   UNL     1      56.479  37.743  20.213  1.00  0.00     0.048 A 
ATOM      9  C   UNL     1      58.279  39.368  20.550  1.00  0.00     0.059 A 
ATOM     10  C   UNL     1      57.518  38.527  19.702  1.00  0.00     0.061 A 
ATOM     11  Cl  UNL     1      59.549  40.332  19.948  1.00  0.00    -0.083 Cl
ATOM     12  Cl  UNL     1      57.842  38.453  17.995  1.00  0.00    -0.083 Cl
ENDBRANCH   2   5
BRANCH   1  13
ATOM     13  C   UNL     1      52.823  36.206  22.635  1.00  0.00     0.166 C 
BRANCH  13  14
ATOM     14  S   UNL     1      52.016  36.977  24.118  1.00  0.00    -0.169 SA
ATOM     15  H   UNL     1      51.678  38.274  23.831  1.00  0.00     0.103 HD
ENDBRANCH  13  14
ENDBRANCH   1  13
TORSDOF 3
ENDMDL
MODEL 16
REMARK VINA RESULT:    -4.124      4.155      5.042
REMARK INTER + INTRA:          -4.857
REMARK INTER:                  -4.750
REMARK INTRA:                  -0.107
REMARK UNBOUND:                -0.131
REMARK SMILES O=C(CS)Nc1ccc(Cl)c(Cl)c1
REMARK SMILES IDX 2 1 5 2 1 3 6 5 7 6 8 7 13 8 9 9 11 10 10 11 12 12 3 13 4 14
REMARK H PARENT 5 4 4 15
ROOT
ATOM      1  C   UNL     1      57.362  38.199  19.937  1.00  0.00     0.234 C 
ATOM      2  N   UNL     1      56.886  37.212  20.791  1.00  0.00    -0.325 N 
ATOM      3  O   UNL     1      56.653  39.217  19.780  1.00  0.00    -0.274 OA
ATOM      4  H   UNL     1      57.428  36.338  20.839  1.00  0.00     0.169 HD
ENDROOT
BRANCH   2   5
ATOM      5  C   UNL     1      55.753  37.290  21.585  1.00  0.00     0.042 A 
ATOM      6  C   UNL     1      55.817  38.022  22.812  1.00  0.00     0.028 A 
ATOM      7  C   UNL     1      54.704  38.200  23.618  1.00  0.00     0.024 A 
ATOM      8  C   UNL     1      54.506  36.773  21.194  1.00  0.00     0.048 A 
ATOM      9  C   UNL     1      53.482  37.681  23.224  1.00  0.00     0.059 A 
ATOM     10  C   UNL     1      53.387  36.956  22.011  1.00  0.00     0.061 A 
ATOM     11  Cl  UNL     1      52.130  37.915  24.235  1.00  0.00    -0.083 Cl
ATOM     12  Cl  UNL     1      51.877  36.257  21.506  1.00  0.00    -0.083 Cl
ENDBRANCH   2   5
BRANCH   1  13
ATOM     13  C   UNL     1      58.654  38.107  19.193  1.00  0.00     0.166 C 
BRANCH  13  14
ATOM     14  S   UNL     1      58.851  39.632  18.154  1.00  0.00    -0.169 SA
ATOM     15  H   UNL     1      60.179  39.962  18.074  1.00  0.00     0.103 HD
ENDBRANCH  13  14
ENDBRANCH   1  13
TORSDOF 3
ENDMDL
MODEL 17
REMARK VINA RESULT:    -4.104      3.900      5.037
REMARK INTER + INTRA:          -4.835
REMARK INTER:                  -4.666
REMARK INTRA:                  -0.169
REMARK UNBOUND:                -0.131
REMARK SMILES O=C(CS)Nc1ccc(Cl)c(Cl)c1
REMARK SMILES IDX 2 1 5 2 1 3 6 5 7 6 8 7 13 8 9 9 11 10 10 11 12 12 3 13 4 14
REMARK H PARENT 5 4 4 15
ROOT
ATOM      1  C   UNL     1      53.895  36.960  23.589  1.00  0.00     0.234 C 
ATOM      2  N   UNL     1      54.908  36.620  22.701  1.00  0.00    -0.325 N 
ATOM      3  O   UNL     1      54.231  37.480  24.676  1.00  0.00    -0.274 OA
ATOM      4  H   UNL     1      54.630  36.105  21.854  1.00  0.00     0.169 HD
ENDROOT
BRANCH   2   5
ATOM      5  C   UNL     1      56.256  36.905  22.845  1.00  0.00     0.042 A 
ATOM      6  C   UNL     1      57.120  35.906  23.394  1.00  0.00     0.028 A 
ATOM      7  C   UNL     1      58.488  36.098  23.500  1.00  0.00     0.024 A 
ATOM      8  C   UNL     1      56.842  38.094  22.379  1.00  0.00     0.048 A 
ATOM      9  C   UNL     1      59.052  37.277  23.042  1.00  0.00     0.059 A 
ATOM     10  C   UNL     1      58.223  38.282  22.489  1.00  0.00     0.061 A 
ATOM     11  Cl  UNL     1      60.738  37.486  23.186  1.00  0.00    -0.083 Cl
ATOM     12  Cl  UNL     1      58.893  39.790  21.941  1.00  0.00    -0.083 Cl
ENDBRANCH   2   5
BRANCH   1  13
ATOM     13  C   UNL     1      52.443  36.730  23.327  1.00  0.00     0.166 C 
BRANCH  13  14
ATOM     14  S   UNL     1      52.217  36.361  21.522  1.00  0.00    -0.169 SA
ATOM     15  H   UNL     1      51.705  35.098  21.375  1.00  0.00     0.103 HD
ENDBRANCH  13  14
ENDBRANCH   1  13
TORSDOF 3
ENDMDL
MODEL 18
REMARK VINA RESULT:    -4.027      4.401      5.489
REMARK INTER + INTRA:          -4.747
REMARK INTER:                  -4.598
REMARK INTRA:                  -0.148
REMARK UNBOUND:                -0.131
REMARK SMILES O=C(CS)Nc1ccc(Cl)c(Cl)c1
REMARK SMILES IDX 2 1 5 2 1 3 6 5 7 6 8 7 13 8 9 9 11 10 10 11 12 12 3 13 4 14
REMARK H PARENT 5 4 4 15
ROOT
ATOM      1  C   UNL     1      53.790  37.519  22.525  1.00  0.00     0.234 C 
ATOM      2  N   UNL     1      54.167  36.212  22.242  1.00  0.00    -0.325 N 
ATOM      3  O   UNL     1      53.296  38.192  21.594  1.00  0.00    -0.274 OA
ATOM      4  H   UNL     1      54.660  35.699  22.986  1.00  0.00     0.169 HD
ENDROOT
BRANCH   2   5
ATOM      5  C   UNL     1      53.944  35.532  21.055  1.00  0.00     0.042 A 
ATOM      6  C   UNL     1      55.013  35.420  20.111  1.00  0.00     0.028 A 
ATOM      7  C   UNL     1      54.880  34.694  18.938  1.00  0.00     0.024 A 
ATOM      8  C   UNL     1      52.747  34.852  20.775  1.00  0.00     0.048 A 
ATOM      9  C   UNL     1      53.693  34.033  18.671  1.00  0.00     0.059 A 
ATOM     10  C   UNL     1      52.620  34.122  19.590  1.00  0.00     0.061 A 
ATOM     11  Cl  UNL     1      53.559  33.148  17.220  1.00  0.00    -0.083 Cl
ATOM     12  Cl  UNL     1      51.102  33.337  19.267  1.00  0.00    -0.083 Cl
ENDBRANCH   2   5
BRANCH   1  13
ATOM     13  C   UNL     1      53.952  38.163  23.863  1.00  0.00     0.166 C 
BRANCH  13  14
ATOM     14  S   UNL     1      52.269  38.493  24.571  1.00  0.00    -0.169 SA
ATOM     15  H   UNL     1      51.500  39.140  23.639  1.00  0.00     0.103 HD
ENDBRANCH  13  14
ENDBRANCH   1  13
TORSDOF 3
ENDMDL
MODEL 19
REMARK VINA RESULT:    -3.906      5.404      6.491
REMARK INTER + INTRA:          -4.607
REMARK INTER:                  -4.478
REMARK INTRA:                  -0.129
REMARK UNBOUND:                -0.131
REMARK SMILES O=C(CS)Nc1ccc(Cl)c(Cl)c1
REMARK SMILES IDX 2 1 5 2 1 3 6 5 7 6 8 7 13 8 9 9 11 10 10 11 12 12 3 13 4 14
REMARK H PARENT 5 4 4 15
ROOT
ATOM      1  C   UNL     1      47.471  32.223  17.210  1.00  0.00     0.234 C 
ATOM      2  N   UNL     1      47.923  32.892  18.340  1.00  0.00    -0.325 N 
ATOM      3  O   UNL     1      48.329  31.836  16.387  1.00  0.00    -0.274 OA
ATOM      4  H   UNL     1      47.206  33.291  18.962  1.00  0.00     0.169 HD
ENDROOT
BRANCH   2   5
ATOM      5  C   UNL     1      49.245  33.075  18.712  1.00  0.00     0.042 A 
ATOM      6  C   UNL     1      49.839  34.366  18.544  1.00  0.00     0.028 A 
ATOM      7  C   UNL     1      51.133  34.637  18.960  1.00  0.00     0.024 A 
ATOM      8  C   UNL     1      50.007  32.081  19.348  1.00  0.00     0.048 A 
ATOM      9  C   UNL     1      51.875  33.646  19.581  1.00  0.00     0.059 A 
ATOM     10  C   UNL     1      51.311  32.360  19.766  1.00  0.00     0.061 A 
ATOM     11  Cl  UNL     1      53.464  34.008  20.082  1.00  0.00    -0.083 Cl
ATOM     12  Cl  UNL     1      52.230  31.083  20.506  1.00  0.00    -0.083 Cl
ENDBRANCH   2   5
BRANCH   1  13
ATOM     13  C   UNL     1      46.031  31.954  16.919  1.00  0.00     0.166 C 
BRANCH  13  14
ATOM     14  S   UNL     1      45.647  30.200  17.388  1.00  0.00    -0.169 SA
ATOM     15  H   UNL     1      46.815  29.531  17.647  1.00  0.00     0.103 HD
ENDBRANCH  13  14
ENDBRANCH   1  13
TORSDOF 3
ENDMDL
MODEL 20
REMARK VINA RESULT:    -3.899      4.393      5.145
REMARK INTER + INTRA:          -4.599
REMARK INTER:                  -4.470
REMARK INTRA:                  -0.129
REMARK UNBOUND:                -0.131
REMARK SMILES O=C(CS)Nc1ccc(Cl)c(Cl)c1
REMARK SMILES IDX 2 1 5 2 1 3 6 5 7 6 8 7 13 8 9 9 11 10 10 11 12 12 3 13 4 14
REMARK H PARENT 5 4 4 15
ROOT
ATOM      1  C   UNL     1      57.632  36.551  21.705  1.00  0.00     0.234 C 
ATOM      2  N   UNL     1      57.196  36.889  22.980  1.00  0.00    -0.325 N 
ATOM      3  O   UNL     1      56.786  36.085  20.911  1.00  0.00    -0.274 OA
ATOM      4  H   UNL     1      57.917  37.180  23.656  1.00  0.00     0.169 HD
ENDROOT
BRANCH   2   5
ATOM      5  C   UNL     1      55.886  36.873  23.431  1.00  0.00     0.042 A 
ATOM      6  C   UNL     1      55.096  38.059  23.304  1.00  0.00     0.028 A 
ATOM      7  C   UNL     1      53.760  38.092  23.668  1.00  0.00     0.024 A 
ATOM      8  C   UNL     1      55.256  35.714  23.913  1.00  0.00     0.048 A 
ATOM      9  C   UNL     1      53.152  36.944  24.147  1.00  0.00     0.059 A 
ATOM     10  C   UNL     1      53.907  35.753  24.279  1.00  0.00     0.061 A 
ATOM     11  Cl  UNL     1      51.506  37.013  24.588  1.00  0.00    -0.083 Cl
ATOM     12  Cl  UNL     1      53.185  34.305  24.914  1.00  0.00    -0.083 Cl
ENDBRANCH   2   5
BRANCH   1  13
ATOM     13  C   UNL     1      59.043  36.699  21.238  1.00  0.00     0.166 C 
BRANCH  13  14
ATOM     14  S   UNL     1      59.922  37.877  22.371  1.00  0.00    -0.169 SA
ATOM     15  H   UNL     1      59.103  38.939  22.651  1.00  0.00     0.103 HD
ENDBRANCH  13  14
ENDBRANCH   1  13
TORSDOF 3
ENDMDL
