MODEL 1
REMARK VINA RESULT:    -8.535      0.000      0.000
REMARK INTER + INTRA:         -18.190
REMARK INTER:                 -16.767
REMARK INTRA:                  -1.423
REMARK UNBOUND:                -1.423
REMARK SMILES COc1cc2sc(CNC(=O)C3(CC(=O)O)Cc4cc(F)c(F)cc4C3)nc2cc1OCCC[N+](C)(CCO)CCO
REMARK SMILES IDX 31 1 30 2 3 3 4 4 5 5 29 6 6 7 28 8 7 9 27 10 2 11 1 12 8 13
REMARK SMILES IDX 9 14 10 15 11 16 12 18 17 19 26 20 18 21 25 22 19 23 24 24
REMARK SMILES IDX 20 25 22 26 21 27 23 28 13 29 14 30 15 31 16 32 32 34 33 35
REMARK SMILES IDX 34 36 35 37 36 38 37 39 38 40 39 41 40 43 41 44 42 45
REMARK H PARENT 9 17 16 33 39 42 42 46
ROOT
ATOM      1  O   UNL     1      64.079  37.520  20.958  1.00  0.00    -0.489 OA
ENDROOT
BRANCH   1   2
ATOM      2  C   UNL     1      62.798  37.210  21.332  1.00  0.00     0.163 A 
ATOM      3  C   UNL     1      62.670  36.143  22.261  1.00  0.00     0.162 A 
ATOM      4  C   UNL     1      61.429  35.754  22.711  1.00  0.00     0.071 A 
ATOM      5  C   UNL     1      60.302  36.423  22.233  1.00  0.00     0.059 A 
ATOM      6  C   UNL     1      61.669  37.875  20.870  1.00  0.00     0.080 A 
ATOM      7  S   UNL     1      58.634  36.153  22.632  1.00  0.00    -0.117 S 
ATOM      8  C   UNL     1      60.404  37.480  21.317  1.00  0.00     0.086 A 
ATOM      9  C   UNL     1      58.198  37.441  21.542  1.00  0.00     0.113 A 
ATOM     10  N   UNL     1      59.184  38.064  20.966  1.00  0.00    -0.239 NA
BRANCH   3  11
ATOM     11  O   UNL     1      63.845  35.558  22.657  1.00  0.00    -0.493 OA
ATOM     12  C   UNL     1      63.779  34.507  23.625  1.00  0.00     0.278 C 
ENDBRANCH   3  11
BRANCH   9  13
ATOM     13  C   UNL     1      56.745  37.688  21.262  1.00  0.00     0.183 C 
BRANCH  13  14
ATOM     14  N   UNL     1      55.869  37.071  22.240  1.00  0.00    -0.349 N 
ATOM     15  C   UNL     1      54.614  37.499  22.442  1.00  0.00     0.227 C 
ATOM     16  O   UNL     1      54.214  38.618  22.121  1.00  0.00    -0.274 OA
ATOM     17  H   UNL     1      56.222  36.279  22.797  1.00  0.00     0.163 HD
BRANCH  15  18
ATOM     18  C   UNL     1      53.691  36.559  23.206  1.00  0.00     0.068 C 
ATOM     19  C   UNL     1      54.563  36.058  24.375  1.00  0.00     0.053 C 
ATOM     20  C   UNL     1      52.586  37.283  24.010  1.00  0.00     0.053 C 
ATOM     21  C   UNL     1      54.562  37.263  25.284  1.00  0.00    -0.041 A 
ATOM     22  C   UNL     1      53.384  37.960  25.092  1.00  0.00    -0.041 A 
ATOM     23  C   UNL     1      55.497  37.719  26.205  1.00  0.00     0.046 A 
ATOM     24  C   UNL     1      53.099  39.107  25.816  1.00  0.00     0.046 A 
ATOM     25  C   UNL     1      55.207  38.870  26.920  1.00  0.00     0.159 A 
ATOM     26  C   UNL     1      54.027  39.552  26.732  1.00  0.00     0.159 A 
ATOM     27  F   UNL     1      56.087  39.331  27.841  1.00  0.00    -0.204 F 
ATOM     28  F   UNL     1      53.773  40.671  27.450  1.00  0.00    -0.204 F 
BRANCH  18  29
ATOM     29  C   UNL     1      53.054  35.494  22.291  1.00  0.00     0.140 C 
BRANCH  29  30
ATOM     30  C   UNL     1      52.015  35.983  21.290  1.00  0.00     0.304 C 
ATOM     31  O   UNL     1      51.017  35.257  21.099  1.00  0.00    -0.252 OA
BRANCH  30  32
ATOM     32  O   UNL     1      52.232  37.076  20.708  1.00  0.00    -0.481 OA
ATOM     33  H   UNL     1      52.514  37.084  19.760  1.00  0.00     0.296 HD
ENDBRANCH  30  32
ENDBRANCH  29  30
ENDBRANCH  18  29
ENDBRANCH  15  18
ENDBRANCH  13  14
ENDBRANCH   9  13
ENDBRANCH   1   2
BRANCH   1  34
ATOM     34  C   UNL     1      64.300  38.516  19.946  1.00  0.00     0.235 C 
BRANCH  34  35
ATOM     35  C   UNL     1      64.435  39.866  20.603  1.00  0.00     0.103 C 
BRANCH  35  36
ATOM     36  C   UNL     1      63.743  40.985  19.837  1.00  0.00     0.267 C 
BRANCH  36  37
ATOM     37  N   UNL     1      62.868  41.958  20.622  1.00  0.00    -0.322 N 
ATOM     38  C   UNL     1      63.163  43.362  20.158  1.00  0.00     0.334 C 
BRANCH  37  39
ATOM     39  C   UNL     1      61.416  41.610  20.297  1.00  0.00     0.292 C 
BRANCH  39  40
ATOM     40  C   UNL     1      60.465  42.756  20.022  1.00  0.00     0.217 C 
BRANCH  40  41
ATOM     41  O   UNL     1      60.058  43.351  21.240  1.00  0.00    -0.391 OA
ATOM     42  H   UNL     1      60.287  42.751  21.993  1.00  0.00     0.210 HD
ENDBRANCH  40  41
ENDBRANCH  39  40
ENDBRANCH  37  39
BRANCH  37  43
ATOM     43  C   UNL     1      63.168  41.882  22.114  1.00  0.00     0.292 C 
BRANCH  43  44
ATOM     44  C   UNL     1      63.416  43.197  22.826  1.00  0.00     0.217 C 
BRANCH  44  45
ATOM     45  O   UNL     1      62.217  43.655  23.420  1.00  0.00    -0.391 OA
ATOM     46  H   UNL     1      61.459  43.489  22.805  1.00  0.00     0.210 HD
ENDBRANCH  44  45
ENDBRANCH  43  44
ENDBRANCH  37  43
ENDBRANCH  36  37
ENDBRANCH  35  36
ENDBRANCH  34  35
ENDBRANCH   1  34
TORSDOF 18
ENDMDL
MODEL 2
REMARK VINA RESULT:    -8.141      4.849      8.461
REMARK INTER + INTRA:         -17.416
REMARK INTER:                 -15.359
REMARK INTRA:                  -2.058
REMARK UNBOUND:                -1.423
REMARK SMILES COc1cc2sc(CNC(=O)C3(CC(=O)O)Cc4cc(F)c(F)cc4C3)nc2cc1OCCC[N+](C)(CCO)CCO
REMARK SMILES IDX 31 1 30 2 3 3 4 4 5 5 29 6 6 7 28 8 7 9 27 10 2 11 1 12 8 13
REMARK SMILES IDX 9 14 10 15 11 16 12 18 17 19 26 20 18 21 25 22 19 23 24 24
REMARK SMILES IDX 20 25 22 26 21 27 23 28 13 29 14 30 15 31 16 32 32 34 33 35
REMARK SMILES IDX 34 36 35 37 36 38 37 39 38 40 39 41 40 43 41 44 42 45
REMARK H PARENT 9 17 16 33 39 42 42 46
ROOT
ATOM      1  O   UNL     1      56.595  32.400  16.493  1.00  0.00    -0.489 OA
ENDROOT
BRANCH   1   2
ATOM      2  C   UNL     1      57.158  33.353  17.301  1.00  0.00     0.163 A 
ATOM      3  C   UNL     1      58.542  33.596  17.092  1.00  0.00     0.162 A 
ATOM      4  C   UNL     1      59.206  34.538  17.843  1.00  0.00     0.071 A 
ATOM      5  C   UNL     1      58.497  35.243  18.816  1.00  0.00     0.059 A 
ATOM      6  C   UNL     1      56.460  34.067  18.267  1.00  0.00     0.080 A 
ATOM      7  S   UNL     1      59.072  36.481  19.889  1.00  0.00    -0.117 S 
ATOM      8  C   UNL     1      57.130  35.020  19.039  1.00  0.00     0.086 A 
ATOM      9  C   UNL     1      57.470  36.593  20.566  1.00  0.00     0.113 A 
ATOM     10  N   UNL     1      56.564  35.832  20.026  1.00  0.00    -0.239 NA
BRANCH   3  11
ATOM     11  O   UNL     1      59.135  32.842  16.113  1.00  0.00    -0.493 OA
ATOM     12  C   UNL     1      59.520  33.497  14.901  1.00  0.00     0.278 C 
ENDBRANCH   3  11
BRANCH   9  13
ATOM     13  C   UNL     1      57.254  37.466  21.766  1.00  0.00     0.183 C 
BRANCH  13  14
ATOM     14  N   UNL     1      56.201  36.978  22.637  1.00  0.00    -0.349 N 
ATOM     15  C   UNL     1      54.951  37.463  22.584  1.00  0.00     0.227 C 
ATOM     16  O   UNL     1      54.661  38.555  22.095  1.00  0.00    -0.274 OA
ATOM     17  H   UNL     1      56.420  36.237  23.318  1.00  0.00     0.163 HD
BRANCH  15  18
ATOM     18  C   UNL     1      53.872  36.633  23.266  1.00  0.00     0.068 C 
ATOM     19  C   UNL     1      54.575  36.080  24.524  1.00  0.00     0.053 C 
ATOM     20  C   UNL     1      52.769  37.478  23.946  1.00  0.00     0.053 C 
ATOM     21  C   UNL     1      54.602  37.303  25.410  1.00  0.00    -0.041 A 
ATOM     22  C   UNL     1      53.521  38.102  25.092  1.00  0.00    -0.041 A 
ATOM     23  C   UNL     1      55.484  37.690  26.411  1.00  0.00     0.046 A 
ATOM     24  C   UNL     1      53.280  39.290  25.766  1.00  0.00     0.046 A 
ATOM     25  C   UNL     1      55.238  38.881  27.076  1.00  0.00     0.159 A 
ATOM     26  C   UNL     1      54.153  39.666  26.763  1.00  0.00     0.159 A 
ATOM     27  F   UNL     1      56.065  39.279  28.073  1.00  0.00    -0.204 F 
ATOM     28  F   UNL     1      53.940  40.822  27.435  1.00  0.00    -0.204 F 
BRANCH  18  29
ATOM     29  C   UNL     1      53.227  35.611  22.310  1.00  0.00     0.140 C 
BRANCH  29  30
ATOM     30  C   UNL     1      52.164  36.141  21.356  1.00  0.00     0.304 C 
ATOM     31  O   UNL     1      51.036  35.608  21.402  1.00  0.00    -0.252 OA
BRANCH  30  32
ATOM     32  O   UNL     1      52.490  37.069  20.573  1.00  0.00    -0.481 OA
ATOM     33  H   UNL     1      53.049  37.818  20.899  1.00  0.00     0.296 HD
ENDBRANCH  30  32
ENDBRANCH  29  30
ENDBRANCH  18  29
ENDBRANCH  15  18
ENDBRANCH  13  14
ENDBRANCH   9  13
ENDBRANCH   1   2
BRANCH   1  34
ATOM     34  C   UNL     1      55.594  32.785  15.537  1.00  0.00     0.235 C 
BRANCH  34  35
ATOM     35  C   UNL     1      54.362  31.941  15.746  1.00  0.00     0.103 C 
BRANCH  35  36
ATOM     36  C   UNL     1      53.262  32.656  16.518  1.00  0.00     0.267 C 
BRANCH  36  37
ATOM     37  N   UNL     1      52.158  31.810  17.146  1.00  0.00    -0.322 N 
ATOM     38  C   UNL     1      52.565  30.360  17.093  1.00  0.00     0.334 C 
BRANCH  37  39
ATOM     39  C   UNL     1      52.036  32.252  18.605  1.00  0.00     0.292 C 
BRANCH  39  40
ATOM     40  C   UNL     1      52.946  33.367  19.076  1.00  0.00     0.217 C 
BRANCH  40  41
ATOM     41  O   UNL     1      53.691  32.941  20.202  1.00  0.00    -0.391 OA
ATOM     42  H   UNL     1      53.093  32.470  20.835  1.00  0.00     0.210 HD
ENDBRANCH  40  41
ENDBRANCH  39  40
ENDBRANCH  37  39
BRANCH  37  43
ATOM     43  C   UNL     1      50.850  31.961  16.379  1.00  0.00     0.292 C 
BRANCH  43  44
ATOM     44  C   UNL     1      49.685  32.568  17.135  1.00  0.00     0.217 C 
BRANCH  44  45
ATOM     45  O   UNL     1      48.706  31.578  17.386  1.00  0.00    -0.391 OA
ATOM     46  H   UNL     1      49.018  30.709  17.029  1.00  0.00     0.210 HD
ENDBRANCH  44  45
ENDBRANCH  43  44
ENDBRANCH  37  43
ENDBRANCH  36  37
ENDBRANCH  35  36
ENDBRANCH  34  35
ENDBRANCH   1  34
TORSDOF 18
ENDMDL
MODEL 3
REMARK VINA RESULT:    -8.095      4.526      7.903
REMARK INTER + INTRA:         -17.326
REMARK INTER:                 -16.251
REMARK INTRA:                  -1.075
REMARK UNBOUND:                -1.423
REMARK SMILES COc1cc2sc(CNC(=O)C3(CC(=O)O)Cc4cc(F)c(F)cc4C3)nc2cc1OCCC[N+](C)(CCO)CCO
REMARK SMILES IDX 31 1 30 2 3 3 4 4 5 5 29 6 6 7 28 8 7 9 27 10 2 11 1 12 8 13
REMARK SMILES IDX 9 14 10 15 11 16 12 18 17 19 26 20 18 21 25 22 19 23 24 24
REMARK SMILES IDX 20 25 22 26 21 27 23 28 13 29 14 30 15 31 16 32 32 34 33 35
REMARK SMILES IDX 34 36 35 37 36 38 37 39 38 40 39 41 40 43 41 44 42 45
REMARK H PARENT 9 17 16 33 39 42 42 46
ROOT
ATOM      1  O   UNL     1      61.928  31.918  21.341  1.00  0.00    -0.489 OA
ENDROOT
BRANCH   1   2
ATOM      2  C   UNL     1      61.413  33.167  21.571  1.00  0.00     0.163 A 
ATOM      3  C   UNL     1      62.297  34.092  22.189  1.00  0.00     0.162 A 
ATOM      4  C   UNL     1      61.887  35.377  22.457  1.00  0.00     0.071 A 
ATOM      5  C   UNL     1      60.586  35.750  22.118  1.00  0.00     0.059 A 
ATOM      6  C   UNL     1      60.123  33.553  21.229  1.00  0.00     0.080 A 
ATOM      7  S   UNL     1      59.814  37.291  22.329  1.00  0.00    -0.117 S 
ATOM      8  C   UNL     1      59.696  34.855  21.506  1.00  0.00     0.086 A 
ATOM      9  C   UNL     1      58.369  36.629  21.615  1.00  0.00     0.113 A 
ATOM     10  N   UNL     1      58.445  35.398  21.201  1.00  0.00    -0.239 NA
BRANCH   3  11
ATOM     11  O   UNL     1      63.548  33.612  22.481  1.00  0.00    -0.493 OA
ATOM     12  C   UNL     1      64.650  34.095  21.709  1.00  0.00     0.278 C 
ENDBRANCH   3  11
BRANCH   9  13
ATOM     13  C   UNL     1      57.121  37.461  21.608  1.00  0.00     0.183 C 
BRANCH  13  14
ATOM     14  N   UNL     1      56.101  36.957  22.507  1.00  0.00    -0.349 N 
ATOM     15  C   UNL     1      54.847  37.436  22.503  1.00  0.00     0.227 C 
ATOM     16  O   UNL     1      54.537  38.534  22.040  1.00  0.00    -0.274 OA
ATOM     17  H   UNL     1      56.346  36.207  23.170  1.00  0.00     0.163 HD
BRANCH  15  18
ATOM     18  C   UNL     1      53.796  36.593  23.211  1.00  0.00     0.068 C 
ATOM     19  C   UNL     1      54.532  36.061  24.459  1.00  0.00     0.053 C 
ATOM     20  C   UNL     1      52.691  37.423  23.906  1.00  0.00     0.053 C 
ATOM     21  C   UNL     1      54.553  37.289  25.337  1.00  0.00    -0.041 A 
ATOM     22  C   UNL     1      53.453  38.068  25.033  1.00  0.00    -0.041 A 
ATOM     23  C   UNL     1      55.447  37.698  26.319  1.00  0.00     0.046 A 
ATOM     24  C   UNL     1      53.203  39.255  25.705  1.00  0.00     0.046 A 
ATOM     25  C   UNL     1      55.193  38.889  26.981  1.00  0.00     0.159 A 
ATOM     26  C   UNL     1      54.088  39.653  26.683  1.00  0.00     0.159 A 
ATOM     27  F   UNL     1      56.031  39.308  27.960  1.00  0.00    -0.204 F 
ATOM     28  F   UNL     1      53.868  40.810  27.352  1.00  0.00    -0.204 F 
BRANCH  18  29
ATOM     29  C   UNL     1      53.152  35.553  22.273  1.00  0.00     0.140 C 
BRANCH  29  30
ATOM     30  C   UNL     1      52.072  36.062  21.326  1.00  0.00     0.304 C 
ATOM     31  O   UNL     1      51.073  35.333  21.152  1.00  0.00    -0.252 OA
BRANCH  30  32
ATOM     32  O   UNL     1      52.259  37.171  20.767  1.00  0.00    -0.481 OA
ATOM     33  H   UNL     1      51.880  37.343  19.869  1.00  0.00     0.296 HD
ENDBRANCH  30  32
ENDBRANCH  29  30
ENDBRANCH  18  29
ENDBRANCH  15  18
ENDBRANCH  13  14
ENDBRANCH   9  13
ENDBRANCH   1   2
BRANCH   1  34
ATOM     34  C   UNL     1      61.043  30.841  20.989  1.00  0.00     0.235 C 
BRANCH  34  35
ATOM     35  C   UNL     1      60.753  30.019  22.218  1.00  0.00     0.103 C 
BRANCH  35  36
ATOM     36  C   UNL     1      60.041  28.707  21.916  1.00  0.00     0.267 C 
BRANCH  36  37
ATOM     37  N   UNL     1      60.779  27.404  22.211  1.00  0.00    -0.322 N 
ATOM     38  C   UNL     1      61.710  27.100  21.064  1.00  0.00     0.334 C 
BRANCH  37  39
ATOM     39  C   UNL     1      61.596  27.636  23.482  1.00  0.00     0.292 C 
BRANCH  39  40
ATOM     40  C   UNL     1      63.034  27.160  23.487  1.00  0.00     0.217 C 
BRANCH  40  41
ATOM     41  O   UNL     1      63.345  26.573  24.737  1.00  0.00    -0.391 OA
ATOM     42  H   UNL     1      62.525  26.514  25.288  1.00  0.00     0.210 HD
ENDBRANCH  40  41
ENDBRANCH  39  40
ENDBRANCH  37  39
BRANCH  37  43
ATOM     43  C   UNL     1      59.803  26.241  22.346  1.00  0.00     0.292 C 
BRANCH  43  44
ATOM     44  C   UNL     1      58.790  26.071  21.232  1.00  0.00     0.217 C 
BRANCH  44  45
ATOM     45  O   UNL     1      57.480  26.179  21.753  1.00  0.00    -0.391 OA
ATOM     46  H   UNL     1      57.526  26.387  22.720  1.00  0.00     0.210 HD
ENDBRANCH  44  45
ENDBRANCH  43  44
ENDBRANCH  37  43
ENDBRANCH  36  37
ENDBRANCH  35  36
ENDBRANCH  34  35
ENDBRANCH   1  34
TORSDOF 18
ENDMDL
MODEL 4
REMARK VINA RESULT:    -8.081      4.382      7.810
REMARK INTER + INTRA:         -17.299
REMARK INTER:                 -16.018
REMARK INTRA:                  -1.281
REMARK UNBOUND:                -1.423
REMARK SMILES COc1cc2sc(CNC(=O)C3(CC(=O)O)Cc4cc(F)c(F)cc4C3)nc2cc1OCCC[N+](C)(CCO)CCO
REMARK SMILES IDX 31 1 30 2 3 3 4 4 5 5 29 6 6 7 28 8 7 9 27 10 2 11 1 12 8 13
REMARK SMILES IDX 9 14 10 15 11 16 12 18 17 19 26 20 18 21 25 22 19 23 24 24
REMARK SMILES IDX 20 25 22 26 21 27 23 28 13 29 14 30 15 31 16 32 32 34 33 35
REMARK SMILES IDX 34 36 35 37 36 38 37 39 38 40 39 41 40 43 41 44 42 45
REMARK H PARENT 9 17 16 33 39 42 42 46
ROOT
ATOM      1  O   UNL     1      62.601  32.464  21.865  1.00  0.00    -0.489 OA
ENDROOT
BRANCH   1   2
ATOM      2  C   UNL     1      61.899  33.636  21.970  1.00  0.00     0.163 A 
ATOM      3  C   UNL     1      62.592  34.714  22.584  1.00  0.00     0.162 A 
ATOM      4  C   UNL     1      61.984  35.939  22.732  1.00  0.00     0.071 A 
ATOM      5  C   UNL     1      60.677  36.100  22.274  1.00  0.00     0.059 A 
ATOM      6  C   UNL     1      60.600  33.811  21.509  1.00  0.00     0.080 A 
ATOM      7  S   UNL     1      59.681  37.521  22.322  1.00  0.00    -0.117 S 
ATOM      8  C   UNL     1      59.974  35.051  21.664  1.00  0.00     0.086 A 
ATOM      9  C   UNL     1      58.406  36.616  21.553  1.00  0.00     0.113 A 
ATOM     10  N   UNL     1      58.688  35.387  21.232  1.00  0.00    -0.239 NA
BRANCH   3  11
ATOM     11  O   UNL     1      63.869  34.439  22.998  1.00  0.00    -0.493 OA
ATOM     12  C   UNL     1      64.677  35.527  23.456  1.00  0.00     0.278 C 
ENDBRANCH   3  11
BRANCH   9  13
ATOM     13  C   UNL     1      57.059  37.256  21.398  1.00  0.00     0.183 C 
BRANCH  13  14
ATOM     14  N   UNL     1      56.081  36.751  22.342  1.00  0.00    -0.349 N 
ATOM     15  C   UNL     1      54.886  37.336  22.513  1.00  0.00     0.227 C 
ATOM     16  O   UNL     1      54.643  38.500  22.192  1.00  0.00    -0.274 OA
ATOM     17  H   UNL     1      56.312  35.917  22.901  1.00  0.00     0.163 HD
BRANCH  15  18
ATOM     18  C   UNL     1      53.826  36.518  23.238  1.00  0.00     0.068 C 
ATOM     19  C   UNL     1      54.560  35.998  24.493  1.00  0.00     0.053 C 
ATOM     20  C   UNL     1      52.735  37.373  23.923  1.00  0.00     0.053 C 
ATOM     21  C   UNL     1      54.600  37.241  25.349  1.00  0.00    -0.041 A 
ATOM     22  C   UNL     1      53.508  38.028  25.036  1.00  0.00    -0.041 A 
ATOM     23  C   UNL     1      55.501  37.656  26.321  1.00  0.00     0.046 A 
ATOM     24  C   UNL     1      53.275  39.230  25.688  1.00  0.00     0.046 A 
ATOM     25  C   UNL     1      55.265  38.861  26.964  1.00  0.00     0.159 A 
ATOM     26  C   UNL     1      54.169  39.634  26.656  1.00  0.00     0.159 A 
ATOM     27  F   UNL     1      56.111  39.286  27.932  1.00  0.00    -0.204 F 
ATOM     28  F   UNL     1      53.964  40.804  27.306  1.00  0.00    -0.204 F 
BRANCH  18  29
ATOM     29  C   UNL     1      53.166  35.471  22.320  1.00  0.00     0.140 C 
BRANCH  29  30
ATOM     30  C   UNL     1      52.071  35.971  21.386  1.00  0.00     0.304 C 
ATOM     31  O   UNL     1      52.398  36.806  20.516  1.00  0.00    -0.252 OA
BRANCH  30  32
ATOM     32  O   UNL     1      50.908  35.528  21.557  1.00  0.00    -0.481 OA
ATOM     33  H   UNL     1      50.682  34.609  21.269  1.00  0.00     0.296 HD
ENDBRANCH  30  32
ENDBRANCH  29  30
ENDBRANCH  18  29
ENDBRANCH  15  18
ENDBRANCH  13  14
ENDBRANCH   9  13
ENDBRANCH   1   2
BRANCH   1  34
ATOM     34  C   UNL     1      61.903  31.245  21.559  1.00  0.00     0.235 C 
BRANCH  34  35
ATOM     35  C   UNL     1      62.628  30.088  22.198  1.00  0.00     0.103 C 
BRANCH  35  36
ATOM     36  C   UNL     1      62.310  28.745  21.555  1.00  0.00     0.267 C 
BRANCH  36  37
ATOM     37  N   UNL     1      61.562  27.708  22.390  1.00  0.00    -0.322 N 
ATOM     38  C   UNL     1      60.102  28.081  22.436  1.00  0.00     0.334 C 
BRANCH  37  39
ATOM     39  C   UNL     1      61.722  26.366  21.676  1.00  0.00     0.292 C 
BRANCH  39  40
ATOM     40  C   UNL     1      60.628  25.337  21.867  1.00  0.00     0.217 C 
BRANCH  40  41
ATOM     41  O   UNL     1      60.852  24.606  23.058  1.00  0.00    -0.391 OA
ATOM     42  H   UNL     1      61.817  24.399  23.142  1.00  0.00     0.210 HD
ENDBRANCH  40  41
ENDBRANCH  39  40
ENDBRANCH  37  39
BRANCH  37  43
ATOM     43  C   UNL     1      62.086  27.676  23.820  1.00  0.00     0.292 C 
BRANCH  43  44
ATOM     44  C   UNL     1      63.339  26.859  24.066  1.00  0.00     0.217 C 
BRANCH  44  45
ATOM     45  O   UNL     1      63.045  25.775  24.925  1.00  0.00    -0.391 OA
ATOM     46  H   UNL     1      62.063  25.656  24.982  1.00  0.00     0.210 HD
ENDBRANCH  44  45
ENDBRANCH  43  44
ENDBRANCH  37  43
ENDBRANCH  36  37
ENDBRANCH  35  36
ENDBRANCH  34  35
ENDBRANCH   1  34
TORSDOF 18
ENDMDL
MODEL 5
REMARK VINA RESULT:    -8.050      3.955      7.408
REMARK INTER + INTRA:         -17.238
REMARK INTER:                 -15.808
REMARK INTRA:                  -1.430
REMARK UNBOUND:                -1.423
REMARK SMILES COc1cc2sc(CNC(=O)C3(CC(=O)O)Cc4cc(F)c(F)cc4C3)nc2cc1OCCC[N+](C)(CCO)CCO
REMARK SMILES IDX 31 1 30 2 3 3 4 4 5 5 29 6 6 7 28 8 7 9 27 10 2 11 1 12 8 13
REMARK SMILES IDX 9 14 10 15 11 16 12 18 17 19 26 20 18 21 25 22 19 23 24 24
REMARK SMILES IDX 20 25 22 26 21 27 23 28 13 29 14 30 15 31 16 32 32 34 33 35
REMARK SMILES IDX 34 36 35 37 36 38 37 39 38 40 39 41 40 43 41 44 42 45
REMARK H PARENT 9 17 16 33 39 42 42 46
ROOT
ATOM      1  O   UNL     1      61.739  31.866  21.175  1.00  0.00    -0.489 OA
ENDROOT
BRANCH   1   2
ATOM      2  C   UNL     1      61.289  33.133  21.445  1.00  0.00     0.163 A 
ATOM      3  C   UNL     1      62.242  34.011  22.028  1.00  0.00     0.162 A 
ATOM      4  C   UNL     1      61.900  35.308  22.332  1.00  0.00     0.071 A 
ATOM      5  C   UNL     1      60.601  35.740  22.063  1.00  0.00     0.059 A 
ATOM      6  C   UNL     1      60.002  33.577  21.174  1.00  0.00     0.080 A 
ATOM      7  S   UNL     1      59.906  37.309  22.331  1.00  0.00    -0.117 S 
ATOM      8  C   UNL     1      59.644  34.891  21.487  1.00  0.00     0.086 A 
ATOM      9  C   UNL     1      58.400  36.717  21.684  1.00  0.00     0.113 A 
ATOM     10  N   UNL     1      58.403  35.490  21.253  1.00  0.00    -0.239 NA
BRANCH   3  11
ATOM     11  O   UNL     1      63.484  33.475  22.251  1.00  0.00    -0.493 OA
ATOM     12  C   UNL     1      64.491  33.676  21.254  1.00  0.00     0.278 C 
ENDBRANCH   3  11
BRANCH   9  13
ATOM     13  C   UNL     1      57.190  37.601  21.750  1.00  0.00     0.183 C 
BRANCH  13  14
ATOM     14  N   UNL     1      56.160  37.083  22.630  1.00  0.00    -0.349 N 
ATOM     15  C   UNL     1      54.882  37.483  22.545  1.00  0.00     0.227 C 
ATOM     16  O   UNL     1      54.529  38.532  22.007  1.00  0.00    -0.274 OA
ATOM     17  H   UNL     1      56.418  36.386  23.344  1.00  0.00     0.163 HD
BRANCH  15  18
ATOM     18  C   UNL     1      53.850  36.614  23.252  1.00  0.00     0.068 C 
ATOM     19  C   UNL     1      54.604  36.082  24.488  1.00  0.00     0.053 C 
ATOM     20  C   UNL     1      52.737  37.419  23.964  1.00  0.00     0.053 C 
ATOM     21  C   UNL     1      54.613  37.302  25.378  1.00  0.00    -0.041 A 
ATOM     22  C   UNL     1      53.497  38.065  25.091  1.00  0.00    -0.041 A 
ATOM     23  C   UNL     1      55.506  37.716  26.358  1.00  0.00     0.046 A 
ATOM     24  C   UNL     1      53.233  39.241  25.777  1.00  0.00     0.046 A 
ATOM     25  C   UNL     1      55.238  38.895  27.034  1.00  0.00     0.159 A 
ATOM     26  C   UNL     1      54.119  39.644  26.752  1.00  0.00     0.159 A 
ATOM     27  F   UNL     1      56.077  39.319  28.011  1.00  0.00    -0.204 F 
ATOM     28  F   UNL     1      53.884  40.790  27.435  1.00  0.00    -0.204 F 
BRANCH  18  29
ATOM     29  C   UNL     1      53.216  35.574  22.308  1.00  0.00     0.140 C 
BRANCH  29  30
ATOM     30  C   UNL     1      52.116  36.073  21.378  1.00  0.00     0.304 C 
ATOM     31  O   UNL     1      51.119  35.337  21.225  1.00  0.00    -0.252 OA
BRANCH  30  32
ATOM     32  O   UNL     1      52.287  37.181  20.812  1.00  0.00    -0.481 OA
ATOM     33  H   UNL     1      53.171  37.625  20.848  1.00  0.00     0.296 HD
ENDBRANCH  30  32
ENDBRANCH  29  30
ENDBRANCH  18  29
ENDBRANCH  15  18
ENDBRANCH  13  14
ENDBRANCH   9  13
ENDBRANCH   1   2
BRANCH   1  34
ATOM     34  C   UNL     1      60.789  30.812  20.945  1.00  0.00     0.235 C 
BRANCH  34  35
ATOM     35  C   UNL     1      60.807  29.867  22.120  1.00  0.00     0.103 C 
BRANCH  35  36
ATOM     36  C   UNL     1      61.285  28.466  21.763  1.00  0.00     0.267 C 
BRANCH  36  37
ATOM     37  N   UNL     1      62.638  28.009  22.302  1.00  0.00    -0.322 N 
ATOM     38  C   UNL     1      63.668  28.144  21.210  1.00  0.00     0.334 C 
BRANCH  37  39
ATOM     39  C   UNL     1      62.994  28.946  23.457  1.00  0.00     0.292 C 
BRANCH  39  40
ATOM     40  C   UNL     1      64.410  29.479  23.515  1.00  0.00     0.217 C 
BRANCH  40  41
ATOM     41  O   UNL     1      64.419  30.864  23.223  1.00  0.00    -0.391 OA
ATOM     42  H   UNL     1      63.487  31.191  23.147  1.00  0.00     0.210 HD
ENDBRANCH  40  41
ENDBRANCH  39  40
ENDBRANCH  37  39
BRANCH  37  43
ATOM     43  C   UNL     1      62.591  26.547  22.729  1.00  0.00     0.292 C 
BRANCH  43  44
ATOM     44  C   UNL     1      62.015  26.257  24.101  1.00  0.00     0.217 C 
BRANCH  44  45
ATOM     45  O   UNL     1      63.030  25.762  24.952  1.00  0.00    -0.391 OA
ATOM     46  H   UNL     1      62.747  24.893  25.332  1.00  0.00     0.210 HD
ENDBRANCH  44  45
ENDBRANCH  43  44
ENDBRANCH  37  43
ENDBRANCH  36  37
ENDBRANCH  35  36
ENDBRANCH  34  35
ENDBRANCH   1  34
TORSDOF 18
ENDMDL
MODEL 6
REMARK VINA RESULT:    -7.936      8.114     12.318
REMARK INTER + INTRA:         -17.014
REMARK INTER:                 -15.464
REMARK INTRA:                  -1.549
REMARK UNBOUND:                -1.423
REMARK SMILES COc1cc2sc(CNC(=O)C3(CC(=O)O)Cc4cc(F)c(F)cc4C3)nc2cc1OCCC[N+](C)(CCO)CCO
REMARK SMILES IDX 31 1 30 2 3 3 4 4 5 5 29 6 6 7 28 8 7 9 27 10 2 11 1 12 8 13
REMARK SMILES IDX 9 14 10 15 11 16 12 18 17 19 26 20 18 21 25 22 19 23 24 24
REMARK SMILES IDX 20 25 22 26 21 27 23 28 13 29 14 30 15 31 16 32 32 34 33 35
REMARK SMILES IDX 34 36 35 37 36 38 37 39 38 40 39 41 40 43 41 44 42 45
REMARK H PARENT 9 17 16 33 39 42 42 46
ROOT
ATOM      1  O   UNL     1      53.744  35.422  20.808  1.00  0.00    -0.489 OA
ENDROOT
BRANCH   1   2
ATOM      2  C   UNL     1      52.896  34.680  20.027  1.00  0.00     0.163 A 
ATOM      3  C   UNL     1      53.516  33.911  19.006  1.00  0.00     0.162 A 
ATOM      4  C   UNL     1      52.760  33.123  18.170  1.00  0.00     0.071 A 
ATOM      5  C   UNL     1      51.376  33.098  18.341  1.00  0.00     0.059 A 
ATOM      6  C   UNL     1      51.518  34.640  20.194  1.00  0.00     0.080 A 
ATOM      7  S   UNL     1      50.192  32.196  17.448  1.00  0.00    -0.117 S 
ATOM      8  C   UNL     1      50.742  33.847  19.343  1.00  0.00     0.086 A 
ATOM      9  C   UNL     1      48.949  32.895  18.450  1.00  0.00     0.113 A 
ATOM     10  N   UNL     1      49.355  33.684  19.401  1.00  0.00    -0.239 NA
BRANCH   3  11
ATOM     11  O   UNL     1      54.881  34.017  18.930  1.00  0.00    -0.493 OA
ATOM     12  C   UNL     1      55.519  33.616  17.714  1.00  0.00     0.278 C 
ENDBRANCH   3  11
BRANCH   9  13
ATOM     13  C   UNL     1      47.513  32.631  18.108  1.00  0.00     0.183 C 
BRANCH  13  14
ATOM     14  N   UNL     1      47.264  32.633  16.679  1.00  0.00    -0.349 N 
ATOM     15  C   UNL     1      46.392  31.789  16.106  1.00  0.00     0.227 C 
ATOM     16  O   UNL     1      46.013  30.740  16.628  1.00  0.00    -0.274 OA
ATOM     17  H   UNL     1      47.773  33.303  16.084  1.00  0.00     0.163 HD
BRANCH  15  18
ATOM     18  C   UNL     1      45.948  32.129  14.690  1.00  0.00     0.068 C 
ATOM     19  C   UNL     1      47.250  32.583  13.997  1.00  0.00     0.053 C 
ATOM     20  C   UNL     1      45.621  30.891  13.822  1.00  0.00     0.053 C 
ATOM     21  C   UNL     1      47.943  31.261  13.771  1.00  0.00    -0.041 A 
ATOM     22  C   UNL     1      46.982  30.277  13.634  1.00  0.00    -0.041 A 
ATOM     23  C   UNL     1      49.291  30.935  13.686  1.00  0.00     0.046 A 
ATOM     24  C   UNL     1      47.332  28.957  13.394  1.00  0.00     0.046 A 
ATOM     25  C   UNL     1      49.632  29.613  13.451  1.00  0.00     0.159 A 
ATOM     26  C   UNL     1      48.670  28.640  13.304  1.00  0.00     0.159 A 
ATOM     27  F   UNL     1      50.936  29.262  13.341  1.00  0.00    -0.204 F 
ATOM     28  F   UNL     1      49.038  27.357  13.071  1.00  0.00    -0.204 F 
BRANCH  18  29
ATOM     29  C   UNL     1      44.757  33.107  14.670  1.00  0.00     0.140 C 
BRANCH  29  30
ATOM     30  C   UNL     1      45.091  34.593  14.643  1.00  0.00     0.304 C 
ATOM     31  O   UNL     1      45.505  35.106  15.704  1.00  0.00    -0.252 OA
BRANCH  30  32
ATOM     32  O   UNL     1      44.915  35.213  13.565  1.00  0.00    -0.481 OA
ATOM     33  H   UNL     1      44.772  36.193  13.575  1.00  0.00     0.296 HD
ENDBRANCH  30  32
ENDBRANCH  29  30
ENDBRANCH  18  29
ENDBRANCH  15  18
ENDBRANCH  13  14
ENDBRANCH   9  13
ENDBRANCH   1   2
BRANCH   1  34
ATOM     34  C   UNL     1      53.320  35.837  22.117  1.00  0.00     0.235 C 
BRANCH  34  35
ATOM     35  C   UNL     1      53.620  37.305  22.289  1.00  0.00     0.103 C 
BRANCH  35  36
ATOM     36  C   UNL     1      53.076  37.885  23.588  1.00  0.00     0.267 C 
BRANCH  36  37
ATOM     37  N   UNL     1      53.975  37.856  24.820  1.00  0.00    -0.322 N 
ATOM     38  C   UNL     1      53.599  36.670  25.671  1.00  0.00     0.334 C 
BRANCH  37  39
ATOM     39  C   UNL     1      55.409  37.688  24.318  1.00  0.00     0.292 C 
BRANCH  39  40
ATOM     40  C   UNL     1      56.243  36.584  24.935  1.00  0.00     0.217 C 
BRANCH  40  41
ATOM     41  O   UNL     1      56.926  35.870  23.922  1.00  0.00    -0.391 OA
ATOM     42  H   UNL     1      57.886  36.116  23.935  1.00  0.00     0.210 HD
ENDBRANCH  40  41
ENDBRANCH  39  40
ENDBRANCH  37  39
BRANCH  37  43
ATOM     43  C   UNL     1      53.794  39.115  25.660  1.00  0.00     0.292 C 
BRANCH  43  44
ATOM     44  C   UNL     1      52.380  39.440  26.100  1.00  0.00     0.217 C 
BRANCH  44  45
ATOM     45  O   UNL     1      51.979  40.679  25.550  1.00  0.00    -0.391 OA
ATOM     46  H   UNL     1      52.728  41.324  25.608  1.00  0.00     0.210 HD
ENDBRANCH  44  45
ENDBRANCH  43  44
ENDBRANCH  37  43
ENDBRANCH  36  37
ENDBRANCH  35  36
ENDBRANCH  34  35
ENDBRANCH   1  34
TORSDOF 18
ENDMDL
MODEL 7
REMARK VINA RESULT:    -7.862      4.584      7.607
REMARK INTER + INTRA:         -16.869
REMARK INTER:                 -15.106
REMARK INTRA:                  -1.763
REMARK UNBOUND:                -1.423
REMARK SMILES COc1cc2sc(CNC(=O)C3(CC(=O)O)Cc4cc(F)c(F)cc4C3)nc2cc1OCCC[N+](C)(CCO)CCO
REMARK SMILES IDX 31 1 30 2 3 3 4 4 5 5 29 6 6 7 28 8 7 9 27 10 2 11 1 12 8 13
REMARK SMILES IDX 9 14 10 15 11 16 12 18 17 19 26 20 18 21 25 22 19 23 24 24
REMARK SMILES IDX 20 25 22 26 21 27 23 28 13 29 14 30 15 31 16 32 32 34 33 35
REMARK SMILES IDX 34 36 35 37 36 38 37 39 38 40 39 41 40 43 41 44 42 45
REMARK H PARENT 9 17 16 33 39 42 42 46
ROOT
ATOM      1  O   UNL     1      58.366  32.421  16.587  1.00  0.00    -0.489 OA
ENDROOT
BRANCH   1   2
ATOM      2  C   UNL     1      58.535  33.175  17.719  1.00  0.00     0.163 A 
ATOM      3  C   UNL     1      59.631  32.806  18.545  1.00  0.00     0.162 A 
ATOM      4  C   UNL     1      59.897  33.502  19.701  1.00  0.00     0.071 A 
ATOM      5  C   UNL     1      59.069  34.568  20.049  1.00  0.00     0.059 A 
ATOM      6  C   UNL     1      57.722  34.245  18.071  1.00  0.00     0.080 A 
ATOM      7  S   UNL     1      59.176  35.615  21.430  1.00  0.00    -0.117 S 
ATOM      8  C   UNL     1      57.982  34.951  19.249  1.00  0.00     0.086 A 
ATOM      9  C   UNL     1      57.765  36.462  20.857  1.00  0.00     0.113 A 
ATOM     10  N   UNL     1      57.275  36.059  19.722  1.00  0.00    -0.239 NA
BRANCH   3  11
ATOM     11  O   UNL     1      60.372  31.740  18.105  1.00  0.00    -0.493 OA
ATOM     12  C   UNL     1      61.618  31.475  18.755  1.00  0.00     0.278 C 
ENDBRANCH   3  11
BRANCH   9  13
ATOM     13  C   UNL     1      57.153  37.516  21.731  1.00  0.00     0.183 C 
BRANCH  13  14
ATOM     14  N   UNL     1      56.139  36.990  22.625  1.00  0.00    -0.349 N 
ATOM     15  C   UNL     1      54.878  37.448  22.623  1.00  0.00     0.227 C 
ATOM     16  O   UNL     1      54.550  38.543  22.166  1.00  0.00    -0.274 OA
ATOM     17  H   UNL     1      56.396  36.240  23.284  1.00  0.00     0.163 HD
BRANCH  15  18
ATOM     18  C   UNL     1      53.839  36.583  23.323  1.00  0.00     0.068 C 
ATOM     19  C   UNL     1      54.570  36.085  24.588  1.00  0.00     0.053 C 
ATOM     20  C   UNL     1      52.701  37.388  23.992  1.00  0.00     0.053 C 
ATOM     21  C   UNL     1      54.543  37.323  25.453  1.00  0.00    -0.041 A 
ATOM     22  C   UNL     1      53.426  38.067  25.123  1.00  0.00    -0.041 A 
ATOM     23  C   UNL     1      55.409  37.767  26.444  1.00  0.00     0.046 A 
ATOM     24  C   UNL     1      53.133  39.253  25.778  1.00  0.00     0.046 A 
ATOM     25  C   UNL     1      55.111  38.957  27.089  1.00  0.00     0.159 A 
ATOM     26  C   UNL     1      53.991  39.687  26.765  1.00  0.00     0.159 A 
ATOM     27  F   UNL     1      55.921  39.410  28.076  1.00  0.00    -0.204 F 
ATOM     28  F   UNL     1      53.727  40.844  27.418  1.00  0.00    -0.204 F 
BRANCH  18  29
ATOM     29  C   UNL     1      53.240  35.516  22.387  1.00  0.00     0.140 C 
BRANCH  29  30
ATOM     30  C   UNL     1      52.145  35.978  21.433  1.00  0.00     0.304 C 
ATOM     31  O   UNL     1      52.486  36.711  20.482  1.00  0.00    -0.252 OA
BRANCH  30  32
ATOM     32  O   UNL     1      50.968  35.608  21.670  1.00  0.00    -0.481 OA
ATOM     33  H   UNL     1      50.574  35.755  22.566  1.00  0.00     0.296 HD
ENDBRANCH  30  32
ENDBRANCH  29  30
ENDBRANCH  18  29
ENDBRANCH  15  18
ENDBRANCH  13  14
ENDBRANCH   9  13
ENDBRANCH   1   2
BRANCH   1  34
ATOM     34  C   UNL     1      57.208  32.631  15.762  1.00  0.00     0.235 C 
BRANCH  34  35
ATOM     35  C   UNL     1      56.296  31.437  15.879  1.00  0.00     0.103 C 
BRANCH  35  36
ATOM     36  C   UNL     1      55.514  31.397  17.185  1.00  0.00     0.267 C 
BRANCH  36  37
ATOM     37  N   UNL     1      54.082  31.924  17.182  1.00  0.00    -0.322 N 
ATOM     38  C   UNL     1      53.970  33.025  16.157  1.00  0.00     0.334 C 
BRANCH  37  39
ATOM     39  C   UNL     1      53.182  30.757  16.776  1.00  0.00     0.292 C 
BRANCH  39  40
ATOM     40  C   UNL     1      52.473  30.851  15.441  1.00  0.00     0.217 C 
BRANCH  40  41
ATOM     41  O   UNL     1      52.423  29.576  14.829  1.00  0.00    -0.391 OA
ATOM     42  H   UNL     1      51.711  29.033  15.253  1.00  0.00     0.210 HD
ENDBRANCH  40  41
ENDBRANCH  39  40
ENDBRANCH  37  39
BRANCH  37  43
ATOM     43  C   UNL     1      53.710  32.505  18.541  1.00  0.00     0.292 C 
BRANCH  43  44
ATOM     44  C   UNL     1      53.691  34.017  18.651  1.00  0.00     0.217 C 
BRANCH  44  45
ATOM     45  O   UNL     1      54.635  34.439  19.615  1.00  0.00    -0.391 OA
ATOM     46  H   UNL     1      55.455  33.889  19.537  1.00  0.00     0.210 HD
ENDBRANCH  44  45
ENDBRANCH  43  44
ENDBRANCH  37  43
ENDBRANCH  36  37
ENDBRANCH  35  36
ENDBRANCH  34  35
ENDBRANCH   1  34
TORSDOF 18
ENDMDL
MODEL 8
REMARK VINA RESULT:    -7.854      4.442      7.118
REMARK INTER + INTRA:         -16.853
REMARK INTER:                 -14.982
REMARK INTRA:                  -1.870
REMARK UNBOUND:                -1.423
REMARK SMILES COc1cc2sc(CNC(=O)C3(CC(=O)O)Cc4cc(F)c(F)cc4C3)nc2cc1OCCC[N+](C)(CCO)CCO
REMARK SMILES IDX 31 1 30 2 3 3 4 4 5 5 29 6 6 7 28 8 7 9 27 10 2 11 1 12 8 13
REMARK SMILES IDX 9 14 10 15 11 16 12 18 17 19 26 20 18 21 25 22 19 23 24 24
REMARK SMILES IDX 20 25 22 26 21 27 23 28 13 29 14 30 15 31 16 32 32 34 33 35
REMARK SMILES IDX 34 36 35 37 36 38 37 39 38 40 39 41 40 43 41 44 42 45
REMARK H PARENT 9 17 16 33 39 42 42 46
ROOT
ATOM      1  O   UNL     1      58.872  32.532  17.050  1.00  0.00    -0.489 OA
ENDROOT
BRANCH   1   2
ATOM      2  C   UNL     1      58.927  33.310  18.177  1.00  0.00     0.163 A 
ATOM      3  C   UNL     1      59.948  32.974  19.106  1.00  0.00     0.162 A 
ATOM      4  C   UNL     1      60.099  33.696  20.267  1.00  0.00     0.071 A 
ATOM      5  C   UNL     1      59.229  34.757  20.516  1.00  0.00     0.059 A 
ATOM      6  C   UNL     1      58.072  34.375  18.432  1.00  0.00     0.080 A 
ATOM      7  S   UNL     1      59.196  35.832  21.879  1.00  0.00    -0.117 S 
ATOM      8  C   UNL     1      58.214  35.107  19.613  1.00  0.00     0.086 A 
ATOM      9  C   UNL     1      57.832  36.647  21.164  1.00  0.00     0.113 A 
ATOM     10  N   UNL     1      57.452  36.214  19.997  1.00  0.00    -0.239 NA
BRANCH   3  11
ATOM     11  O   UNL     1      60.740  31.911  18.757  1.00  0.00    -0.493 OA
ATOM     12  C   UNL     1      60.492  30.653  19.390  1.00  0.00     0.278 C 
ENDBRANCH   3  11
BRANCH   9  13
ATOM     13  C   UNL     1      57.129  37.708  21.956  1.00  0.00     0.183 C 
BRANCH  13  14
ATOM     14  N   UNL     1      56.062  37.180  22.785  1.00  0.00    -0.349 N 
ATOM     15  C   UNL     1      54.776  37.507  22.586  1.00  0.00     0.227 C 
ATOM     16  O   UNL     1      54.414  38.509  21.970  1.00  0.00    -0.274 OA
ATOM     17  H   UNL     1      56.300  36.534  23.552  1.00  0.00     0.163 HD
BRANCH  15  18
ATOM     18  C   UNL     1      53.738  36.621  23.261  1.00  0.00     0.068 C 
ATOM     19  C   UNL     1      54.460  36.108  24.525  1.00  0.00     0.053 C 
ATOM     20  C   UNL     1      52.586  37.406  23.931  1.00  0.00     0.053 C 
ATOM     21  C   UNL     1      54.413  37.331  25.409  1.00  0.00    -0.041 A 
ATOM     22  C   UNL     1      53.293  38.071  25.081  1.00  0.00    -0.041 A 
ATOM     23  C   UNL     1      55.265  37.766  26.417  1.00  0.00     0.046 A 
ATOM     24  C   UNL     1      52.983  39.244  25.752  1.00  0.00     0.046 A 
ATOM     25  C   UNL     1      54.950  38.942  27.079  1.00  0.00     0.159 A 
ATOM     26  C   UNL     1      53.826  39.668  26.756  1.00  0.00     0.159 A 
ATOM     27  F   UNL     1      55.746  39.385  28.082  1.00  0.00    -0.204 F 
ATOM     28  F   UNL     1      53.546  40.811  27.425  1.00  0.00    -0.204 F 
BRANCH  18  29
ATOM     29  C   UNL     1      53.157  35.565  22.300  1.00  0.00     0.140 C 
BRANCH  29  30
ATOM     30  C   UNL     1      52.094  36.042  21.319  1.00  0.00     0.304 C 
ATOM     31  O   UNL     1      50.930  35.621  21.486  1.00  0.00    -0.252 OA
BRANCH  30  32
ATOM     32  O   UNL     1      52.454  36.814  20.395  1.00  0.00    -0.481 OA
ATOM     33  H   UNL     1      53.391  37.129  20.351  1.00  0.00     0.296 HD
ENDBRANCH  30  32
ENDBRANCH  29  30
ENDBRANCH  18  29
ENDBRANCH  15  18
ENDBRANCH  13  14
ENDBRANCH   9  13
ENDBRANCH   1   2
BRANCH   1  34
ATOM     34  C   UNL     1      57.751  31.655  16.850  1.00  0.00     0.235 C 
BRANCH  34  35
ATOM     35  C   UNL     1      56.845  32.244  15.799  1.00  0.00     0.103 C 
BRANCH  35  36
ATOM     36  C   UNL     1      55.376  31.893  15.999  1.00  0.00     0.267 C 
BRANCH  36  37
ATOM     37  N   UNL     1      54.344  33.006  15.844  1.00  0.00    -0.322 N 
ATOM     38  C   UNL     1      53.354  32.607  14.779  1.00  0.00     0.334 C 
BRANCH  37  39
ATOM     39  C   UNL     1      53.624  33.134  17.186  1.00  0.00     0.292 C 
BRANCH  39  40
ATOM     40  C   UNL     1      54.436  33.611  18.373  1.00  0.00     0.217 C 
BRANCH  40  41
ATOM     41  O   UNL     1      53.846  33.157  19.577  1.00  0.00    -0.391 OA
ATOM     42  H   UNL     1      53.667  32.185  19.511  1.00  0.00     0.210 HD
ENDBRANCH  40  41
ENDBRANCH  39  40
ENDBRANCH  37  39
BRANCH  37  43
ATOM     43  C   UNL     1      55.005  34.309  15.408  1.00  0.00     0.292 C 
BRANCH  43  44
ATOM     44  C   UNL     1      54.755  34.753  13.981  1.00  0.00     0.217 C 
BRANCH  44  45
ATOM     45  O   UNL     1      55.962  35.204  13.400  1.00  0.00    -0.391 OA
ATOM     46  H   UNL     1      56.704  35.084  14.045  1.00  0.00     0.210 HD
ENDBRANCH  44  45
ENDBRANCH  43  44
ENDBRANCH  37  43
ENDBRANCH  36  37
ENDBRANCH  35  36
ENDBRANCH  34  35
ENDBRANCH   1  34
TORSDOF 18
ENDMDL
MODEL 9
REMARK VINA RESULT:    -7.782      4.390      7.513
REMARK INTER + INTRA:         -16.712
REMARK INTER:                 -15.043
REMARK INTRA:                  -1.669
REMARK UNBOUND:                -1.423
REMARK SMILES COc1cc2sc(CNC(=O)C3(CC(=O)O)Cc4cc(F)c(F)cc4C3)nc2cc1OCCC[N+](C)(CCO)CCO
REMARK SMILES IDX 31 1 30 2 3 3 4 4 5 5 29 6 6 7 28 8 7 9 27 10 2 11 1 12 8 13
REMARK SMILES IDX 9 14 10 15 11 16 12 18 17 19 26 20 18 21 25 22 19 23 24 24
REMARK SMILES IDX 20 25 22 26 21 27 23 28 13 29 14 30 15 31 16 32 32 34 33 35
REMARK SMILES IDX 34 36 35 37 36 38 37 39 38 40 39 41 40 43 41 44 42 45
REMARK H PARENT 9 17 16 33 39 42 42 46
ROOT
ATOM      1  O   UNL     1      62.628  32.313  20.881  1.00  0.00    -0.489 OA
ENDROOT
BRANCH   1   2
ATOM      2  C   UNL     1      61.510  33.060  20.614  1.00  0.00     0.163 A 
ATOM      3  C   UNL     1      60.918  32.846  19.340  1.00  0.00     0.162 A 
ATOM      4  C   UNL     1      59.787  33.537  18.971  1.00  0.00     0.071 A 
ATOM      5  C   UNL     1      59.239  34.454  19.868  1.00  0.00     0.059 A 
ATOM      6  C   UNL     1      60.949  33.969  21.502  1.00  0.00     0.080 A 
ATOM      7  S   UNL     1      57.827  35.445  19.673  1.00  0.00    -0.117 S 
ATOM      8  C   UNL     1      59.805  34.680  21.131  1.00  0.00     0.086 A 
ATOM      9  C   UNL     1      58.105  36.099  21.264  1.00  0.00     0.113 A 
ATOM     10  N   UNL     1      59.114  35.604  21.920  1.00  0.00    -0.239 NA
BRANCH   3  11
ATOM     11  O   UNL     1      61.546  31.926  18.541  1.00  0.00    -0.493 OA
ATOM     12  C   UNL     1      60.817  30.756  18.162  1.00  0.00     0.278 C 
ENDBRANCH   3  11
BRANCH   9  13
ATOM     13  C   UNL     1      57.248  37.236  21.737  1.00  0.00     0.183 C 
BRANCH  13  14
ATOM     14  N   UNL     1      56.174  36.807  22.612  1.00  0.00    -0.349 N 
ATOM     15  C   UNL     1      54.950  37.353  22.559  1.00  0.00     0.227 C 
ATOM     16  O   UNL     1      54.715  38.456  22.065  1.00  0.00    -0.274 OA
ATOM     17  H   UNL     1      56.357  36.059  23.297  1.00  0.00     0.163 HD
BRANCH  15  18
ATOM     18  C   UNL     1      53.832  36.583  23.249  1.00  0.00     0.068 C 
ATOM     19  C   UNL     1      54.501  36.029  24.525  1.00  0.00     0.053 C 
ATOM     20  C   UNL     1      52.759  37.487  23.901  1.00  0.00     0.053 C 
ATOM     21  C   UNL     1      54.571  37.269  25.385  1.00  0.00    -0.041 A 
ATOM     22  C   UNL     1      53.526  38.104  25.040  1.00  0.00    -0.041 A 
ATOM     23  C   UNL     1      55.459  37.641  26.386  1.00  0.00     0.046 A 
ATOM     24  C   UNL     1      53.328  39.315  25.687  1.00  0.00     0.046 A 
ATOM     25  C   UNL     1      55.257  38.854  27.024  1.00  0.00     0.159 A 
ATOM     26  C   UNL     1      54.208  39.677  26.684  1.00  0.00     0.159 A 
ATOM     27  F   UNL     1      56.092  39.240  28.019  1.00  0.00    -0.204 F 
ATOM     28  F   UNL     1      54.037  40.854  27.330  1.00  0.00    -0.204 F 
BRANCH  18  29
ATOM     29  C   UNL     1      53.154  35.569  22.308  1.00  0.00     0.140 C 
BRANCH  29  30
ATOM     30  C   UNL     1      52.100  36.117  21.354  1.00  0.00     0.304 C 
ATOM     31  O   UNL     1      51.067  35.435  21.189  1.00  0.00    -0.252 OA
BRANCH  30  32
ATOM     32  O   UNL     1      52.341  37.208  20.781  1.00  0.00    -0.481 OA
ATOM     33  H   UNL     1      51.789  38.005  20.980  1.00  0.00     0.296 HD
ENDBRANCH  30  32
ENDBRANCH  29  30
ENDBRANCH  18  29
ENDBRANCH  15  18
ENDBRANCH  13  14
ENDBRANCH   9  13
ENDBRANCH   1   2
BRANCH   1  34
ATOM     34  C   UNL     1      63.025  32.097  22.245  1.00  0.00     0.235 C 
BRANCH  34  35
ATOM     35  C   UNL     1      63.252  30.622  22.464  1.00  0.00     0.103 C 
BRANCH  35  36
ATOM     36  C   UNL     1      62.449  29.739  21.519  1.00  0.00     0.267 C 
BRANCH  36  37
ATOM     37  N   UNL     1      61.273  28.954  22.094  1.00  0.00    -0.322 N 
ATOM     38  C   UNL     1      60.102  29.887  22.266  1.00  0.00     0.334 C 
BRANCH  37  39
ATOM     39  C   UNL     1      60.919  27.874  21.071  1.00  0.00     0.292 C 
BRANCH  39  40
ATOM     40  C   UNL     1      59.563  27.212  21.194  1.00  0.00     0.217 C 
BRANCH  40  41
ATOM     41  O   UNL     1      59.707  25.906  21.722  1.00  0.00    -0.391 OA
ATOM     42  H   UNL     1      59.510  25.918  22.692  1.00  0.00     0.210 HD
ENDBRANCH  40  41
ENDBRANCH  39  40
ENDBRANCH  37  39
BRANCH  37  43
ATOM     43  C   UNL     1      61.619  28.374  23.460  1.00  0.00     0.292 C 
BRANCH  43  44
ATOM     44  C   UNL     1      62.494  27.136  23.471  1.00  0.00     0.217 C 
BRANCH  44  45
ATOM     45  O   UNL     1      61.749  26.026  23.934  1.00  0.00    -0.391 OA
ATOM     46  H   UNL     1      62.311  25.482  24.541  1.00  0.00     0.210 HD
ENDBRANCH  44  45
ENDBRANCH  43  44
ENDBRANCH  37  43
ENDBRANCH  36  37
ENDBRANCH  35  36
ENDBRANCH  34  35
ENDBRANCH   1  34
TORSDOF 18
ENDMDL
MODEL 10
REMARK VINA RESULT:    -7.744      3.877      7.114
REMARK INTER + INTRA:         -16.637
REMARK INTER:                 -15.092
REMARK INTRA:                  -1.546
REMARK UNBOUND:                -1.423
REMARK SMILES COc1cc2sc(CNC(=O)C3(CC(=O)O)Cc4cc(F)c(F)cc4C3)nc2cc1OCCC[N+](C)(CCO)CCO
REMARK SMILES IDX 31 1 30 2 3 3 4 4 5 5 29 6 6 7 28 8 7 9 27 10 2 11 1 12 8 13
REMARK SMILES IDX 9 14 10 15 11 16 12 18 17 19 26 20 18 21 25 22 19 23 24 24
REMARK SMILES IDX 20 25 22 26 21 27 23 28 13 29 14 30 15 31 16 32 32 34 33 35
REMARK SMILES IDX 34 36 35 37 36 38 37 39 38 40 39 41 40 43 41 44 42 45
REMARK H PARENT 9 17 16 33 39 42 42 46
ROOT
ATOM      1  O   UNL     1      62.416  32.393  21.757  1.00  0.00    -0.489 OA
ENDROOT
BRANCH   1   2
ATOM      2  C   UNL     1      61.722  33.568  21.881  1.00  0.00     0.163 A 
ATOM      3  C   UNL     1      62.420  34.630  22.517  1.00  0.00     0.162 A 
ATOM      4  C   UNL     1      61.820  35.856  22.687  1.00  0.00     0.071 A 
ATOM      5  C   UNL     1      60.514  36.033  22.229  1.00  0.00     0.059 A 
ATOM      6  C   UNL     1      60.425  33.760  21.422  1.00  0.00     0.080 A 
ATOM      7  S   UNL     1      59.528  37.461  22.301  1.00  0.00    -0.117 S 
ATOM      8  C   UNL     1      59.806  35.001  21.598  1.00  0.00     0.086 A 
ATOM      9  C   UNL     1      58.249  36.578  21.513  1.00  0.00     0.113 A 
ATOM     10  N   UNL     1      58.523  35.354  21.170  1.00  0.00    -0.239 NA
BRANCH   3  11
ATOM     11  O   UNL     1      63.694  34.338  22.929  1.00  0.00    -0.493 OA
ATOM     12  C   UNL     1      64.492  35.403  23.453  1.00  0.00     0.278 C 
ENDBRANCH   3  11
BRANCH   9  13
ATOM     13  C   UNL     1      56.907  37.230  21.366  1.00  0.00     0.183 C 
BRANCH  13  14
ATOM     14  N   UNL     1      55.944  36.767  22.347  1.00  0.00    -0.349 N 
ATOM     15  C   UNL     1      54.758  37.370  22.522  1.00  0.00     0.227 C 
ATOM     16  O   UNL     1      54.520  38.524  22.168  1.00  0.00    -0.274 OA
ATOM     17  H   UNL     1      56.178  35.949  22.928  1.00  0.00     0.163 HD
BRANCH  15  18
ATOM     18  C   UNL     1      53.706  36.586  23.295  1.00  0.00     0.068 C 
ATOM     19  C   UNL     1      54.481  36.029  24.508  1.00  0.00     0.053 C 
ATOM     20  C   UNL     1      52.683  37.477  24.039  1.00  0.00     0.053 C 
ATOM     21  C   UNL     1      54.612  37.263  25.368  1.00  0.00    -0.041 A 
ATOM     22  C   UNL     1      53.536  38.093  25.116  1.00  0.00    -0.041 A 
ATOM     23  C   UNL     1      55.576  37.636  26.296  1.00  0.00     0.046 A 
ATOM     24  C   UNL     1      53.383  39.298  25.786  1.00  0.00     0.046 A 
ATOM     25  C   UNL     1      55.418  38.843  26.957  1.00  0.00     0.159 A 
ATOM     26  C   UNL     1      54.339  39.660  26.710  1.00  0.00     0.159 A 
ATOM     27  F   UNL     1      56.328  39.229  27.884  1.00  0.00    -0.204 F 
ATOM     28  F   UNL     1      54.213  40.832  27.376  1.00  0.00    -0.204 F 
BRANCH  18  29
ATOM     29  C   UNL     1      52.960  35.573  22.405  1.00  0.00     0.140 C 
BRANCH  29  30
ATOM     30  C   UNL     1      52.738  35.970  20.951  1.00  0.00     0.304 C 
ATOM     31  O   UNL     1      53.202  35.213  20.073  1.00  0.00    -0.252 OA
BRANCH  30  32
ATOM     32  O   UNL     1      52.119  37.040  20.725  1.00  0.00    -0.481 OA
ATOM     33  H   UNL     1      51.650  37.167  19.863  1.00  0.00     0.296 HD
ENDBRANCH  30  32
ENDBRANCH  29  30
ENDBRANCH  18  29
ENDBRANCH  15  18
ENDBRANCH  13  14
ENDBRANCH   9  13
ENDBRANCH   1   2
BRANCH   1  34
ATOM     34  C   UNL     1      62.590  31.808  20.456  1.00  0.00     0.235 C 
BRANCH  34  35
ATOM     35  C   UNL     1      62.933  30.348  20.614  1.00  0.00     0.103 C 
BRANCH  35  36
ATOM     36  C   UNL     1      62.887  29.868  22.058  1.00  0.00     0.267 C 
BRANCH  36  37
ATOM     37  N   UNL     1      61.933  28.729  22.406  1.00  0.00    -0.322 N 
ATOM     38  C   UNL     1      62.350  28.130  23.726  1.00  0.00     0.334 C 
BRANCH  37  39
ATOM     39  C   UNL     1      60.541  29.344  22.543  1.00  0.00     0.292 C 
BRANCH  39  40
ATOM     40  C   UNL     1      59.591  29.195  21.372  1.00  0.00     0.217 C 
BRANCH  40  41
ATOM     41  O   UNL     1      59.302  30.465  20.818  1.00  0.00    -0.391 OA
ATOM     42  H   UNL     1      59.419  30.431  19.835  1.00  0.00     0.210 HD
ENDBRANCH  40  41
ENDBRANCH  39  40
ENDBRANCH  37  39
BRANCH  37  43
ATOM     43  C   UNL     1      61.986  27.630  21.352  1.00  0.00     0.292 C 
BRANCH  43  44
ATOM     44  C   UNL     1      63.014  26.536  21.562  1.00  0.00     0.217 C 
BRANCH  44  45
ATOM     45  O   UNL     1      62.423  25.272  21.334  1.00  0.00    -0.391 OA
ATOM     46  H   UNL     1      61.504  25.265  21.704  1.00  0.00     0.210 HD
ENDBRANCH  44  45
ENDBRANCH  43  44
ENDBRANCH  37  43
ENDBRANCH  36  37
ENDBRANCH  35  36
ENDBRANCH  34  35
ENDBRANCH   1  34
TORSDOF 18
ENDMDL
MODEL 11
REMARK VINA RESULT:    -7.708      5.491     12.007
REMARK INTER + INTRA:         -16.566
REMARK INTER:                 -14.796
REMARK INTRA:                  -1.770
REMARK UNBOUND:                -1.423
REMARK SMILES COc1cc2sc(CNC(=O)C3(CC(=O)O)Cc4cc(F)c(F)cc4C3)nc2cc1OCCC[N+](C)(CCO)CCO
REMARK SMILES IDX 31 1 30 2 3 3 4 4 5 5 29 6 6 7 28 8 7 9 27 10 2 11 1 12 8 13
REMARK SMILES IDX 9 14 10 15 11 16 12 18 17 19 26 20 18 21 25 22 19 23 24 24
REMARK SMILES IDX 20 25 22 26 21 27 23 28 13 29 14 30 15 31 16 32 32 34 33 35
REMARK SMILES IDX 34 36 35 37 36 38 37 39 38 40 39 41 40 43 41 44 42 45
REMARK H PARENT 9 17 16 33 39 42 42 46
ROOT
ATOM      1  O   UNL     1      50.650  32.629  19.055  1.00  0.00    -0.489 OA
ENDROOT
BRANCH   1   2
ATOM      2  C   UNL     1      51.937  32.735  18.595  1.00  0.00     0.163 A 
ATOM      3  C   UNL     1      52.247  31.949  17.453  1.00  0.00     0.162 A 
ATOM      4  C   UNL     1      53.507  31.986  16.902  1.00  0.00     0.071 A 
ATOM      5  C   UNL     1      54.473  32.803  17.490  1.00  0.00     0.059 A 
ATOM      6  C   UNL     1      52.904  33.552  19.166  1.00  0.00     0.080 A 
ATOM      7  S   UNL     1      56.122  33.050  17.005  1.00  0.00    -0.117 S 
ATOM      8  C   UNL     1      54.189  33.589  18.617  1.00  0.00     0.086 A 
ATOM      9  C   UNL     1      56.316  34.153  18.340  1.00  0.00     0.113 A 
ATOM     10  N   UNL     1      55.256  34.375  19.060  1.00  0.00    -0.239 NA
BRANCH   3  11
ATOM     11  O   UNL     1      51.222  31.182  16.964  1.00  0.00    -0.493 OA
ATOM     12  C   UNL     1      50.921  31.271  15.569  1.00  0.00     0.278 C 
ENDBRANCH   3  11
BRANCH   9  13
ATOM     13  C   UNL     1      57.684  34.693  18.636  1.00  0.00     0.183 C 
BRANCH  13  14
ATOM     14  N   UNL     1      57.653  35.892  19.450  1.00  0.00    -0.349 N 
ATOM     15  C   UNL     1      58.338  35.992  20.600  1.00  0.00     0.227 C 
ATOM     16  O   UNL     1      58.737  35.021  21.243  1.00  0.00    -0.274 OA
ATOM     17  H   UNL     1      57.087  36.694  19.137  1.00  0.00     0.163 HD
BRANCH  15  18
ATOM     18  C   UNL     1      58.524  37.395  21.160  1.00  0.00     0.068 C 
ATOM     19  C   UNL     1      57.161  38.074  20.909  1.00  0.00     0.053 C 
ATOM     20  C   UNL     1      58.552  37.453  22.706  1.00  0.00     0.053 C 
ATOM     21  C   UNL     1      56.313  37.443  21.988  1.00  0.00    -0.041 A 
ATOM     22  C   UNL     1      57.128  37.113  23.053  1.00  0.00    -0.041 A 
ATOM     23  C   UNL     1      54.950  37.181  22.046  1.00  0.00     0.046 A 
ATOM     24  C   UNL     1      56.611  36.535  24.203  1.00  0.00     0.046 A 
ATOM     25  C   UNL     1      54.443  36.597  23.195  1.00  0.00     0.159 A 
ATOM     26  C   UNL     1      55.258  36.282  24.258  1.00  0.00     0.159 A 
ATOM     27  F   UNL     1      53.115  36.347  23.296  1.00  0.00    -0.204 F 
ATOM     28  F   UNL     1      54.730  35.716  25.369  1.00  0.00    -0.204 F 
BRANCH  18  29
ATOM     29  C   UNL     1      59.776  38.091  20.591  1.00  0.00     0.140 C 
BRANCH  29  30
ATOM     30  C   UNL     1      59.584  38.924  19.330  1.00  0.00     0.304 C 
ATOM     31  O   UNL     1      59.455  38.308  18.251  1.00  0.00    -0.252 OA
BRANCH  30  32
ATOM     32  O   UNL     1      59.584  40.175  19.450  1.00  0.00    -0.481 OA
ATOM     33  H   UNL     1      60.088  40.733  18.807  1.00  0.00     0.296 HD
ENDBRANCH  30  32
ENDBRANCH  29  30
ENDBRANCH  18  29
ENDBRANCH  15  18
ENDBRANCH  13  14
ENDBRANCH   9  13
ENDBRANCH   1   2
BRANCH   1  34
ATOM     34  C   UNL     1      49.686  33.633  18.700  1.00  0.00     0.235 C 
BRANCH  34  35
ATOM     35  C   UNL     1      48.438  32.959  18.188  1.00  0.00     0.103 C 
BRANCH  35  36
ATOM     36  C   UNL     1      48.086  33.342  16.757  1.00  0.00     0.267 C 
BRANCH  36  37
ATOM     37  N   UNL     1      46.937  32.602  16.077  1.00  0.00    -0.322 N 
ATOM     38  C   UNL     1      47.223  32.510  14.600  1.00  0.00     0.334 C 
BRANCH  37  39
ATOM     39  C   UNL     1      46.899  31.196  16.677  1.00  0.00     0.292 C 
BRANCH  39  40
ATOM     40  C   UNL     1      45.761  30.288  16.260  1.00  0.00     0.217 C 
BRANCH  40  41
ATOM     41  O   UNL     1      45.740  29.133  17.078  1.00  0.00    -0.391 OA
ATOM     42  H   UNL     1      46.611  29.038  17.540  1.00  0.00     0.210 HD
ENDBRANCH  40  41
ENDBRANCH  39  40
ENDBRANCH  37  39
BRANCH  37  43
ATOM     43  C   UNL     1      45.622  33.350  16.258  1.00  0.00     0.292 C 
BRANCH  43  44
ATOM     44  C   UNL     1      45.698  34.864  16.270  1.00  0.00     0.217 C 
BRANCH  44  45
ATOM     45  O   UNL     1      44.638  35.391  17.044  1.00  0.00    -0.391 OA
ATOM     46  H   UNL     1      44.296  34.691  17.655  1.00  0.00     0.210 HD
ENDBRANCH  44  45
ENDBRANCH  43  44
ENDBRANCH  37  43
ENDBRANCH  36  37
ENDBRANCH  35  36
ENDBRANCH  34  35
ENDBRANCH   1  34
TORSDOF 18
ENDMDL
MODEL 12
REMARK VINA RESULT:    -7.531      5.797     12.203
REMARK INTER + INTRA:         -16.219
REMARK INTER:                 -14.566
REMARK INTRA:                  -1.652
REMARK UNBOUND:                -1.423
REMARK SMILES COc1cc2sc(CNC(=O)C3(CC(=O)O)Cc4cc(F)c(F)cc4C3)nc2cc1OCCC[N+](C)(CCO)CCO
REMARK SMILES IDX 31 1 30 2 3 3 4 4 5 5 29 6 6 7 28 8 7 9 27 10 2 11 1 12 8 13
REMARK SMILES IDX 9 14 10 15 11 16 12 18 17 19 26 20 18 21 25 22 19 23 24 24
REMARK SMILES IDX 20 25 22 26 21 27 23 28 13 29 14 30 15 31 16 32 32 34 33 35
REMARK SMILES IDX 34 36 35 37 36 38 37 39 38 40 39 41 40 43 41 44 42 45
REMARK H PARENT 9 17 16 33 39 42 42 46
ROOT
ATOM      1  O   UNL     1      50.065  31.988  19.287  1.00  0.00    -0.489 OA
ENDROOT
BRANCH   1   2
ATOM      2  C   UNL     1      51.348  32.231  18.871  1.00  0.00     0.163 A 
ATOM      3  C   UNL     1      51.790  31.464  17.760  1.00  0.00     0.162 A 
ATOM      4  C   UNL     1      53.058  31.634  17.255  1.00  0.00     0.071 A 
ATOM      5  C   UNL     1      53.901  32.566  17.859  1.00  0.00     0.059 A 
ATOM      6  C   UNL     1      52.194  33.163  19.459  1.00  0.00     0.080 A 
ATOM      7  S   UNL     1      55.530  32.989  17.429  1.00  0.00    -0.117 S 
ATOM      8  C   UNL     1      53.487  33.336  18.956  1.00  0.00     0.086 A 
ATOM      9  C   UNL     1      55.546  34.132  18.745  1.00  0.00     0.113 A 
ATOM     10  N   UNL     1      54.440  34.246  19.420  1.00  0.00    -0.239 NA
BRANCH   3  11
ATOM     11  O   UNL     1      50.877  30.576  17.252  1.00  0.00    -0.493 OA
ATOM     12  C   UNL     1      51.372  29.414  16.581  1.00  0.00     0.278 C 
ENDBRANCH   3  11
BRANCH   9  13
ATOM     13  C   UNL     1      56.831  34.830  19.078  1.00  0.00     0.183 C 
BRANCH  13  14
ATOM     14  N   UNL     1      56.701  35.754  20.188  1.00  0.00    -0.349 N 
ATOM     15  C   UNL     1      57.715  36.003  21.031  1.00  0.00     0.227 C 
ATOM     16  O   UNL     1      58.679  35.253  21.181  1.00  0.00    -0.274 OA
ATOM     17  H   UNL     1      55.801  36.234  20.335  1.00  0.00     0.163 HD
BRANCH  15  18
ATOM     18  C   UNL     1      57.580  37.241  21.908  1.00  0.00     0.068 C 
ATOM     19  C   UNL     1      59.010  37.470  22.441  1.00  0.00     0.053 C 
ATOM     20  C   UNL     1      57.395  38.554  21.113  1.00  0.00     0.053 C 
ATOM     21  C   UNL     1      59.690  38.052  21.225  1.00  0.00    -0.041 A 
ATOM     22  C   UNL     1      58.745  38.717  20.467  1.00  0.00    -0.041 A 
ATOM     23  C   UNL     1      61.016  38.015  20.810  1.00  0.00     0.046 A 
ATOM     24  C   UNL     1      59.093  39.372  19.295  1.00  0.00     0.046 A 
ATOM     25  C   UNL     1      61.353  38.667  19.635  1.00  0.00     0.159 A 
ATOM     26  C   UNL     1      60.410  39.338  18.891  1.00  0.00     0.159 A 
ATOM     27  F   UNL     1      62.640  38.669  19.211  1.00  0.00    -0.204 F 
ATOM     28  F   UNL     1      60.774  39.968  17.749  1.00  0.00    -0.204 F 
BRANCH  18  29
ATOM     29  C   UNL     1      56.452  37.100  22.948  1.00  0.00     0.140 C 
BRANCH  29  30
ATOM     30  C   UNL     1      55.063  37.556  22.518  1.00  0.00     0.304 C 
ATOM     31  O   UNL     1      54.484  36.881  21.642  1.00  0.00    -0.252 OA
BRANCH  30  32
ATOM     32  O   UNL     1      54.593  38.589  23.058  1.00  0.00    -0.481 OA
ATOM     33  H   UNL     1      55.152  39.120  23.680  1.00  0.00     0.296 HD
ENDBRANCH  30  32
ENDBRANCH  29  30
ENDBRANCH  18  29
ENDBRANCH  15  18
ENDBRANCH  13  14
ENDBRANCH   9  13
ENDBRANCH   1   2
BRANCH   1  34
ATOM     34  C   UNL     1      49.069  33.015  19.148  1.00  0.00     0.235 C 
BRANCH  34  35
ATOM     35  C   UNL     1      47.989  32.531  18.214  1.00  0.00     0.103 C 
BRANCH  35  36
ATOM     36  C   UNL     1      47.922  33.313  16.909  1.00  0.00     0.267 C 
BRANCH  36  37
ATOM     37  N   UNL     1      46.870  32.905  15.880  1.00  0.00    -0.322 N 
ATOM     38  C   UNL     1      46.101  31.723  16.412  1.00  0.00     0.334 C 
BRANCH  37  39
ATOM     39  C   UNL     1      45.926  34.096  15.717  1.00  0.00     0.292 C 
BRANCH  39  40
ATOM     40  C   UNL     1      44.756  34.198  16.674  1.00  0.00     0.217 C 
BRANCH  40  41
ATOM     41  O   UNL     1      44.554  35.547  17.050  1.00  0.00    -0.391 OA
ATOM     42  H   UNL     1      44.020  35.582  17.883  1.00  0.00     0.210 HD
ENDBRANCH  40  41
ENDBRANCH  39  40
ENDBRANCH  37  39
BRANCH  37  43
ATOM     43  C   UNL     1      47.522  32.492  14.566  1.00  0.00     0.292 C 
BRANCH  43  44
ATOM     44  C   UNL     1      48.434  31.282  14.611  1.00  0.00     0.217 C 
BRANCH  44  45
ATOM     45  O   UNL     1      49.784  31.700  14.651  1.00  0.00    -0.391 OA
ATOM     46  H   UNL     1      50.287  31.133  15.289  1.00  0.00     0.210 HD
ENDBRANCH  44  45
ENDBRANCH  43  44
ENDBRANCH  37  43
ENDBRANCH  36  37
ENDBRANCH  35  36
ENDBRANCH  34  35
ENDBRANCH   1  34
TORSDOF 18
ENDMDL
MODEL 13
REMARK VINA RESULT:    -7.526      2.291      3.186
REMARK INTER + INTRA:         -16.209
REMARK INTER:                 -14.496
REMARK INTRA:                  -1.713
REMARK UNBOUND:                -1.423
REMARK SMILES COc1cc2sc(CNC(=O)C3(CC(=O)O)Cc4cc(F)c(F)cc4C3)nc2cc1OCCC[N+](C)(CCO)CCO
REMARK SMILES IDX 31 1 30 2 3 3 4 4 5 5 29 6 6 7 28 8 7 9 27 10 2 11 1 12 8 13
REMARK SMILES IDX 9 14 10 15 11 16 12 18 17 19 26 20 18 21 25 22 19 23 24 24
REMARK SMILES IDX 20 25 22 26 21 27 23 28 13 29 14 30 15 31 16 32 32 34 33 35
REMARK SMILES IDX 34 36 35 37 36 38 37 39 38 40 39 41 40 43 41 44 42 45
REMARK H PARENT 9 17 16 33 39 42 42 46
ROOT
ATOM      1  O   UNL     1      63.905  37.519  20.452  1.00  0.00    -0.489 OA
ENDROOT
BRANCH   1   2
ATOM      2  C   UNL     1      62.651  37.320  20.967  1.00  0.00     0.163 A 
ATOM      3  C   UNL     1      62.571  36.414  22.058  1.00  0.00     0.162 A 
ATOM      4  C   UNL     1      61.362  36.147  22.657  1.00  0.00     0.071 A 
ATOM      5  C   UNL     1      60.217  36.777  22.167  1.00  0.00     0.059 A 
ATOM      6  C   UNL     1      61.505  37.948  20.494  1.00  0.00     0.080 A 
ATOM      7  S   UNL     1      58.581  36.635  22.730  1.00  0.00    -0.117 S 
ATOM      8  C   UNL     1      60.272  37.675  21.092  1.00  0.00     0.086 A 
ATOM      9  C   UNL     1      58.091  37.755  21.488  1.00  0.00     0.113 A 
ATOM     10  N   UNL     1      59.042  38.244  20.747  1.00  0.00    -0.239 NA
BRANCH   3  11
ATOM     11  O   UNL     1      63.759  35.852  22.450  1.00  0.00    -0.493 OA
ATOM     12  C   UNL     1      63.710  34.685  23.275  1.00  0.00     0.278 C 
ENDBRANCH   3  11
BRANCH   9  13
ATOM     13  C   UNL     1      56.627  38.011  21.284  1.00  0.00     0.183 C 
BRANCH  13  14
ATOM     14  N   UNL     1      55.794  37.330  22.257  1.00  0.00    -0.349 N 
ATOM     15  C   UNL     1      54.481  37.579  22.370  1.00  0.00     0.227 C 
ATOM     16  O   UNL     1      53.942  38.606  21.956  1.00  0.00    -0.274 OA
ATOM     17  H   UNL     1      56.225  36.633  22.882  1.00  0.00     0.163 HD
BRANCH  15  18
ATOM     18  C   UNL     1      53.660  36.559  23.149  1.00  0.00     0.068 C 
ATOM     19  C   UNL     1      54.608  36.115  24.283  1.00  0.00     0.053 C 
ATOM     20  C   UNL     1      52.528  37.183  23.998  1.00  0.00     0.053 C 
ATOM     21  C   UNL     1      54.541  37.306  25.209  1.00  0.00    -0.041 A 
ATOM     22  C   UNL     1      53.306  37.909  25.063  1.00  0.00    -0.041 A 
ATOM     23  C   UNL     1      55.467  37.824  26.106  1.00  0.00     0.046 A 
ATOM     24  C   UNL     1      52.955  39.022  25.813  1.00  0.00     0.046 A 
ATOM     25  C   UNL     1      55.110  38.939  26.845  1.00  0.00     0.159 A 
ATOM     26  C   UNL     1      53.874  39.527  26.705  1.00  0.00     0.159 A 
ATOM     27  F   UNL     1      55.980  39.459  27.745  1.00  0.00    -0.204 F 
ATOM     28  F   UNL     1      53.556  40.615  27.447  1.00  0.00    -0.204 F 
BRANCH  18  29
ATOM     29  C   UNL     1      53.081  35.458  22.239  1.00  0.00     0.140 C 
BRANCH  29  30
ATOM     30  C   UNL     1      52.070  35.899  21.188  1.00  0.00     0.304 C 
ATOM     31  O   UNL     1      50.860  35.832  21.493  1.00  0.00    -0.252 OA
BRANCH  30  32
ATOM     32  O   UNL     1      52.511  36.287  20.078  1.00  0.00    -0.481 OA
ATOM     33  H   UNL     1      52.325  37.207  19.765  1.00  0.00     0.296 HD
ENDBRANCH  30  32
ENDBRANCH  29  30
ENDBRANCH  18  29
ENDBRANCH  15  18
ENDBRANCH  13  14
ENDBRANCH   9  13
ENDBRANCH   1   2
BRANCH   1  34
ATOM     34  C   UNL     1      64.250  36.941  19.183  1.00  0.00     0.235 C 
BRANCH  34  35
ATOM     35  C   UNL     1      64.573  38.045  18.209  1.00  0.00     0.103 C 
BRANCH  35  36
ATOM     36  C   UNL     1      63.517  38.227  17.127  1.00  0.00     0.267 C 
BRANCH  36  37
ATOM     37  N   UNL     1      62.794  39.569  17.048  1.00  0.00    -0.322 N 
ATOM     38  C   UNL     1      63.221  40.423  18.215  1.00  0.00     0.334 C 
BRANCH  37  39
ATOM     39  C   UNL     1      63.234  40.233  15.743  1.00  0.00     0.292 C 
BRANCH  39  40
ATOM     40  C   UNL     1      63.837  39.344  14.675  1.00  0.00     0.217 C 
BRANCH  40  41
ATOM     41  O   UNL     1      62.862  39.029  13.699  1.00  0.00    -0.391 OA
ATOM     42  H   UNL     1      63.267  39.083  12.797  1.00  0.00     0.210 HD
ENDBRANCH  40  41
ENDBRANCH  39  40
ENDBRANCH  37  39
BRANCH  37  43
ATOM     43  C   UNL     1      61.283  39.382  17.128  1.00  0.00     0.292 C 
BRANCH  43  44
ATOM     44  C   UNL     1      60.754  37.993  16.832  1.00  0.00     0.217 C 
BRANCH  44  45
ATOM     45  O   UNL     1      60.176  37.964  15.542  1.00  0.00    -0.391 OA
ATOM     46  H   UNL     1      60.852  38.235  14.871  1.00  0.00     0.210 HD
ENDBRANCH  44  45
ENDBRANCH  43  44
ENDBRANCH  37  43
ENDBRANCH  36  37
ENDBRANCH  35  36
ENDBRANCH  34  35
ENDBRANCH   1  34
TORSDOF 18
ENDMDL
MODEL 14
REMARK VINA RESULT:    -7.506      5.870     12.295
REMARK INTER + INTRA:         -16.169
REMARK INTER:                 -14.690
REMARK INTRA:                  -1.479
REMARK UNBOUND:                -1.423
REMARK SMILES COc1cc2sc(CNC(=O)C3(CC(=O)O)Cc4cc(F)c(F)cc4C3)nc2cc1OCCC[N+](C)(CCO)CCO
REMARK SMILES IDX 31 1 30 2 3 3 4 4 5 5 29 6 6 7 28 8 7 9 27 10 2 11 1 12 8 13
REMARK SMILES IDX 9 14 10 15 11 16 12 18 17 19 26 20 18 21 25 22 19 23 24 24
REMARK SMILES IDX 20 25 22 26 21 27 23 28 13 29 14 30 15 31 16 32 32 34 33 35
REMARK SMILES IDX 34 36 35 37 36 38 37 39 38 40 39 41 40 43 41 44 42 45
REMARK H PARENT 9 17 16 33 39 42 42 46
ROOT
ATOM      1  O   UNL     1      50.538  32.116  18.213  1.00  0.00    -0.489 OA
ENDROOT
BRANCH   1   2
ATOM      2  C   UNL     1      51.852  32.414  17.960  1.00  0.00     0.163 A 
ATOM      3  C   UNL     1      52.394  31.842  16.778  1.00  0.00     0.162 A 
ATOM      4  C   UNL     1      53.701  32.083  16.423  1.00  0.00     0.071 A 
ATOM      5  C   UNL     1      54.482  32.892  17.248  1.00  0.00     0.059 A 
ATOM      6  C   UNL     1      52.637  33.225  18.769  1.00  0.00     0.080 A 
ATOM      7  S   UNL     1      56.140  33.366  17.042  1.00  0.00    -0.117 S 
ATOM      8  C   UNL     1      53.968  33.468  18.419  1.00  0.00     0.086 A 
ATOM      9  C   UNL     1      56.033  34.269  18.529  1.00  0.00     0.113 A 
ATOM     10  N   UNL     1      54.871  34.278  19.113  1.00  0.00    -0.239 NA
BRANCH   3  11
ATOM     11  O   UNL     1      51.535  31.062  16.048  1.00  0.00    -0.493 OA
ATOM     12  C   UNL     1      51.614  31.128  14.622  1.00  0.00     0.278 C 
ENDBRANCH   3  11
BRANCH   9  13
ATOM     13  C   UNL     1      57.280  34.888  19.087  1.00  0.00     0.183 C 
BRANCH  13  14
ATOM     14  N   UNL     1      57.014  35.811  20.174  1.00  0.00    -0.349 N 
ATOM     15  C   UNL     1      57.905  36.039  21.151  1.00  0.00     0.227 C 
ATOM     16  O   UNL     1      58.825  35.270  21.429  1.00  0.00    -0.274 OA
ATOM     17  H   UNL     1      56.111  36.308  20.197  1.00  0.00     0.163 HD
BRANCH  15  18
ATOM     18  C   UNL     1      57.673  37.277  22.007  1.00  0.00     0.068 C 
ATOM     19  C   UNL     1      59.064  37.574  22.606  1.00  0.00     0.053 C 
ATOM     20  C   UNL     1      57.469  38.574  21.190  1.00  0.00     0.053 C 
ATOM     21  C   UNL     1      59.775  38.176  21.418  1.00  0.00    -0.041 A 
ATOM     22  C   UNL     1      58.840  38.792  20.609  1.00  0.00    -0.041 A 
ATOM     23  C   UNL     1      61.120  38.195  21.068  1.00  0.00     0.046 A 
ATOM     24  C   UNL     1      59.214  39.452  19.448  1.00  0.00     0.046 A 
ATOM     25  C   UNL     1      61.484  38.852  19.904  1.00  0.00     0.159 A 
ATOM     26  C   UNL     1      60.549  39.474  19.108  1.00  0.00     0.159 A 
ATOM     27  F   UNL     1      62.789  38.909  19.542  1.00  0.00    -0.204 F 
ATOM     28  F   UNL     1      60.940  40.110  17.979  1.00  0.00    -0.204 F 
BRANCH  18  29
ATOM     29  C   UNL     1      56.503  37.093  22.993  1.00  0.00     0.140 C 
BRANCH  29  30
ATOM     30  C   UNL     1      55.127  37.540  22.514  1.00  0.00     0.304 C 
ATOM     31  O   UNL     1      54.631  38.549  23.058  1.00  0.00    -0.252 OA
BRANCH  30  32
ATOM     32  O   UNL     1      54.571  36.860  21.616  1.00  0.00    -0.481 OA
ATOM     33  H   UNL     1      54.708  35.880  21.581  1.00  0.00     0.296 HD
ENDBRANCH  30  32
ENDBRANCH  29  30
ENDBRANCH  18  29
ENDBRANCH  15  18
ENDBRANCH  13  14
ENDBRANCH   9  13
ENDBRANCH   1   2
BRANCH   1  34
ATOM     34  C   UNL     1      49.699  33.096  18.848  1.00  0.00     0.235 C 
BRANCH  34  35
ATOM     35  C   UNL     1      48.680  33.591  17.854  1.00  0.00     0.103 C 
BRANCH  35  36
ATOM     36  C   UNL     1      47.519  32.628  17.646  1.00  0.00     0.267 C 
BRANCH  36  37
ATOM     37  N   UNL     1      46.825  32.621  16.287  1.00  0.00    -0.322 N 
ATOM     38  C   UNL     1      47.872  32.529  15.206  1.00  0.00     0.334 C 
BRANCH  37  39
ATOM     39  C   UNL     1      45.942  31.374  16.247  1.00  0.00     0.292 C 
BRANCH  39  40
ATOM     40  C   UNL     1      46.579  30.078  15.789  1.00  0.00     0.217 C 
BRANCH  40  41
ATOM     41  O   UNL     1      46.494  29.108  16.816  1.00  0.00    -0.391 OA
ATOM     42  H   UNL     1      45.906  28.367  16.522  1.00  0.00     0.210 HD
ENDBRANCH  40  41
ENDBRANCH  39  40
ENDBRANCH  37  39
BRANCH  37  43
ATOM     43  C   UNL     1      46.034  33.905  16.069  1.00  0.00     0.292 C 
BRANCH  43  44
ATOM     44  C   UNL     1      44.981  34.238  17.107  1.00  0.00     0.217 C 
BRANCH  44  45
ATOM     45  O   UNL     1      44.547  35.573  16.939  1.00  0.00    -0.391 OA
ATOM     46  H   UNL     1      45.260  36.192  17.238  1.00  0.00     0.210 HD
ENDBRANCH  44  45
ENDBRANCH  43  44
ENDBRANCH  37  43
ENDBRANCH  36  37
ENDBRANCH  35  36
ENDBRANCH  34  35
ENDBRANCH   1  34
TORSDOF 18
ENDMDL
MODEL 15
REMARK VINA RESULT:    -7.417      8.191     12.385
REMARK INTER + INTRA:         -15.994
REMARK INTER:                 -14.520
REMARK INTRA:                  -1.474
REMARK UNBOUND:                -1.423
REMARK SMILES COc1cc2sc(CNC(=O)C3(CC(=O)O)Cc4cc(F)c(F)cc4C3)nc2cc1OCCC[N+](C)(CCO)CCO
REMARK SMILES IDX 31 1 30 2 3 3 4 4 5 5 29 6 6 7 28 8 7 9 27 10 2 11 1 12 8 13
REMARK SMILES IDX 9 14 10 15 11 16 12 18 17 19 26 20 18 21 25 22 19 23 24 24
REMARK SMILES IDX 20 25 22 26 21 27 23 28 13 29 14 30 15 31 16 32 32 34 33 35
REMARK SMILES IDX 34 36 35 37 36 38 37 39 38 40 39 41 40 43 41 44 42 45
REMARK H PARENT 9 17 16 33 39 42 42 46
ROOT
ATOM      1  O   UNL     1      53.431  35.537  20.908  1.00  0.00    -0.489 OA
ENDROOT
BRANCH   1   2
ATOM      2  C   UNL     1      52.716  34.743  20.050  1.00  0.00     0.163 A 
ATOM      3  C   UNL     1      53.488  33.961  19.149  1.00  0.00     0.162 A 
ATOM      4  C   UNL     1      52.872  33.121  18.250  1.00  0.00     0.071 A 
ATOM      5  C   UNL     1      51.478  33.059  18.236  1.00  0.00     0.059 A 
ATOM      6  C   UNL     1      51.329  34.665  20.033  1.00  0.00     0.080 A 
ATOM      7  S   UNL     1      50.450  32.090  17.227  1.00  0.00    -0.117 S 
ATOM      8  C   UNL     1      50.696  33.820  19.117  1.00  0.00     0.086 A 
ATOM      9  C   UNL     1      49.066  32.782  18.029  1.00  0.00     0.113 A 
ATOM     10  N   UNL     1      49.319  33.615  18.995  1.00  0.00    -0.239 NA
BRANCH   3  11
ATOM     11  O   UNL     1      54.847  34.108  19.251  1.00  0.00    -0.493 OA
ATOM     12  C   UNL     1      55.638  33.861  18.086  1.00  0.00     0.278 C 
ENDBRANCH   3  11
BRANCH   9  13
ATOM     13  C   UNL     1      47.696  32.461  17.509  1.00  0.00     0.183 C 
BRANCH  13  14
ATOM     14  N   UNL     1      47.590  31.109  16.994  1.00  0.00    -0.349 N 
ATOM     15  C   UNL     1      46.776  30.797  15.974  1.00  0.00     0.227 C 
ATOM     16  O   UNL     1      45.816  31.486  15.630  1.00  0.00    -0.274 OA
ATOM     17  H   UNL     1      48.157  30.365  17.425  1.00  0.00     0.163 HD
BRANCH  15  18
ATOM     18  C   UNL     1      47.024  29.457  15.293  1.00  0.00     0.068 C 
ATOM     19  C   UNL     1      46.652  29.720  13.819  1.00  0.00     0.053 C 
ATOM     20  C   UNL     1      48.521  29.112  15.117  1.00  0.00     0.053 C 
ATOM     21  C   UNL     1      47.850  30.509  13.347  1.00  0.00    -0.041 A 
ATOM     22  C   UNL     1      48.951  30.123  14.087  1.00  0.00    -0.041 A 
ATOM     23  C   UNL     1      47.980  31.475  12.357  1.00  0.00     0.046 A 
ATOM     24  C   UNL     1      50.204  30.670  13.854  1.00  0.00     0.046 A 
ATOM     25  C   UNL     1      49.234  32.021  12.134  1.00  0.00     0.159 A 
ATOM     26  C   UNL     1      50.329  31.624  12.867  1.00  0.00     0.159 A 
ATOM     27  F   UNL     1      49.402  32.950  11.163  1.00  0.00    -0.204 F 
ATOM     28  F   UNL     1      51.541  32.175  12.621  1.00  0.00    -0.204 F 
BRANCH  18  29
ATOM     29  C   UNL     1      46.304  28.297  16.008  1.00  0.00     0.140 C 
BRANCH  29  30
ATOM     30  C   UNL     1      44.862  28.027  15.597  1.00  0.00     0.304 C 
ATOM     31  O   UNL     1      44.625  26.948  15.015  1.00  0.00    -0.252 OA
BRANCH  30  32
ATOM     32  O   UNL     1      44.006  28.910  15.853  1.00  0.00    -0.481 OA
ATOM     33  H   UNL     1      43.591  29.425  15.116  1.00  0.00     0.296 HD
ENDBRANCH  30  32
ENDBRANCH  29  30
ENDBRANCH  18  29
ENDBRANCH  15  18
ENDBRANCH  13  14
ENDBRANCH   9  13
ENDBRANCH   1   2
BRANCH   1  34
ATOM     34  C   UNL     1      52.870  36.783  21.353  1.00  0.00     0.235 C 
BRANCH  34  35
ATOM     35  C   UNL     1      53.828  37.439  22.315  1.00  0.00     0.103 C 
BRANCH  35  36
ATOM     36  C   UNL     1      53.172  37.882  23.616  1.00  0.00     0.267 C 
BRANCH  36  37
ATOM     37  N   UNL     1      54.009  37.846  24.891  1.00  0.00    -0.322 N 
ATOM     38  C   UNL     1      53.449  36.792  25.813  1.00  0.00     0.334 C 
BRANCH  37  39
ATOM     39  C   UNL     1      55.429  37.458  24.478  1.00  0.00     0.292 C 
BRANCH  39  40
ATOM     40  C   UNL     1      55.937  36.098  24.909  1.00  0.00     0.217 C 
BRANCH  40  41
ATOM     41  O   UNL     1      57.068  35.737  24.138  1.00  0.00    -0.391 OA
ATOM     42  H   UNL     1      57.537  36.555  23.837  1.00  0.00     0.210 HD
ENDBRANCH  40  41
ENDBRANCH  39  40
ENDBRANCH  37  39
BRANCH  37  43
ATOM     43  C   UNL     1      53.957  39.184  25.618  1.00  0.00     0.292 C 
BRANCH  43  44
ATOM     44  C   UNL     1      52.622  39.581  26.215  1.00  0.00     0.217 C 
BRANCH  44  45
ATOM     45  O   UNL     1      52.025  40.592  25.427  1.00  0.00    -0.391 OA
ATOM     46  H   UNL     1      51.110  40.773  25.759  1.00  0.00     0.210 HD
ENDBRANCH  44  45
ENDBRANCH  43  44
ENDBRANCH  37  43
ENDBRANCH  36  37
ENDBRANCH  35  36
ENDBRANCH  34  35
ENDBRANCH   1  34
TORSDOF 18
ENDMDL
MODEL 16
REMARK VINA RESULT:    -7.293      4.227      7.668
REMARK INTER + INTRA:         -15.751
REMARK INTER:                 -14.597
REMARK INTRA:                  -1.154
REMARK UNBOUND:                -1.423
REMARK SMILES COc1cc2sc(CNC(=O)C3(CC(=O)O)Cc4cc(F)c(F)cc4C3)nc2cc1OCCC[N+](C)(CCO)CCO
REMARK SMILES IDX 31 1 30 2 3 3 4 4 5 5 29 6 6 7 28 8 7 9 27 10 2 11 1 12 8 13
REMARK SMILES IDX 9 14 10 15 11 16 12 18 17 19 26 20 18 21 25 22 19 23 24 24
REMARK SMILES IDX 20 25 22 26 21 27 23 28 13 29 14 30 15 31 16 32 32 34 33 35
REMARK SMILES IDX 34 36 35 37 36 38 37 39 38 40 39 41 40 43 41 44 42 45
REMARK H PARENT 9 17 16 33 39 42 42 46
ROOT
ATOM      1  O   UNL     1      61.571  32.166  20.580  1.00  0.00    -0.489 OA
ENDROOT
BRANCH   1   2
ATOM      2  C   UNL     1      60.867  33.317  20.340  1.00  0.00     0.163 A 
ATOM      3  C   UNL     1      61.145  33.961  19.104  1.00  0.00     0.162 A 
ATOM      4  C   UNL     1      60.488  35.119  18.758  1.00  0.00     0.071 A 
ATOM      5  C   UNL     1      59.552  35.651  19.646  1.00  0.00     0.059 A 
ATOM      6  C   UNL     1      59.926  33.851  21.211  1.00  0.00     0.080 A 
ATOM      7  S   UNL     1      58.579  37.078  19.465  1.00  0.00    -0.117 S 
ATOM      8  C   UNL     1      59.260  35.032  20.870  1.00  0.00     0.086 A 
ATOM      9  C   UNL     1      57.880  36.761  21.029  1.00  0.00     0.113 A 
ATOM     10  N   UNL     1      58.275  35.674  21.625  1.00  0.00    -0.239 NA
BRANCH   3  11
ATOM     11  O   UNL     1      62.085  33.351  18.316  1.00  0.00    -0.493 OA
ATOM     12  C   UNL     1      61.830  33.261  16.912  1.00  0.00     0.278 C 
ENDBRANCH   3  11
BRANCH   9  13
ATOM     13  C   UNL     1      56.959  37.782  21.628  1.00  0.00     0.183 C 
BRANCH  13  14
ATOM     14  N   UNL     1      56.015  37.209  22.567  1.00  0.00    -0.349 N 
ATOM     15  C   UNL     1      54.717  37.550  22.571  1.00  0.00     0.227 C 
ATOM     16  O   UNL     1      54.282  38.588  22.072  1.00  0.00    -0.274 OA
ATOM     17  H   UNL     1      56.350  36.518  23.254  1.00  0.00     0.163 HD
BRANCH  15  18
ATOM     18  C   UNL     1      53.774  36.629  23.334  1.00  0.00     0.068 C 
ATOM     19  C   UNL     1      54.623  36.144  24.528  1.00  0.00     0.053 C 
ATOM     20  C   UNL     1      52.659  37.373  24.104  1.00  0.00     0.053 C 
ATOM     21  C   UNL     1      54.611  37.365  25.415  1.00  0.00    -0.041 A 
ATOM     22  C   UNL     1      53.441  38.064  25.189  1.00  0.00    -0.041 A 
ATOM     23  C   UNL     1      55.532  37.832  26.345  1.00  0.00     0.046 A 
ATOM     24  C   UNL     1      53.149  39.226  25.887  1.00  0.00     0.046 A 
ATOM     25  C   UNL     1      55.235  38.997  27.034  1.00  0.00     0.159 A 
ATOM     26  C   UNL     1      54.062  39.682  26.812  1.00  0.00     0.159 A 
ATOM     27  F   UNL     1      56.100  39.470  27.963  1.00  0.00    -0.204 F 
ATOM     28  F   UNL     1      53.801  40.815  27.506  1.00  0.00    -0.204 F 
BRANCH  18  29
ATOM     29  C   UNL     1      53.149  35.551  22.426  1.00  0.00     0.140 C 
BRANCH  29  30
ATOM     30  C   UNL     1      52.893  35.941  20.975  1.00  0.00     0.304 C 
ATOM     31  O   UNL     1      53.487  35.287  20.093  1.00  0.00    -0.252 OA
BRANCH  30  32
ATOM     32  O   UNL     1      52.116  36.904  20.757  1.00  0.00    -0.481 OA
ATOM     33  H   UNL     1      52.473  37.825  20.699  1.00  0.00     0.296 HD
ENDBRANCH  30  32
ENDBRANCH  29  30
ENDBRANCH  18  29
ENDBRANCH  15  18
ENDBRANCH  13  14
ENDBRANCH   9  13
ENDBRANCH   1   2
BRANCH   1  34
ATOM     34  C   UNL     1      61.519  31.563  21.883  1.00  0.00     0.235 C 
BRANCH  34  35
ATOM     35  C   UNL     1      62.844  30.904  22.174  1.00  0.00     0.103 C 
BRANCH  35  36
ATOM     36  C   UNL     1      62.921  29.462  21.692  1.00  0.00     0.267 C 
BRANCH  36  37
ATOM     37  N   UNL     1      63.172  28.370  22.729  1.00  0.00    -0.322 N 
ATOM     38  C   UNL     1      63.864  27.210  22.059  1.00  0.00     0.334 C 
BRANCH  37  39
ATOM     39  C   UNL     1      64.095  28.970  23.789  1.00  0.00     0.292 C 
BRANCH  39  40
ATOM     40  C   UNL     1      65.124  28.055  24.421  1.00  0.00     0.217 C 
BRANCH  40  41
ATOM     41  O   UNL     1      66.428  28.532  24.150  1.00  0.00    -0.391 OA
ATOM     42  H   UNL     1      66.647  28.375  23.197  1.00  0.00     0.210 HD
ENDBRANCH  40  41
ENDBRANCH  39  40
ENDBRANCH  37  39
BRANCH  37  43
ATOM     43  C   UNL     1      61.861  27.862  23.316  1.00  0.00     0.292 C 
BRANCH  43  44
ATOM     44  C   UNL     1      61.738  26.363  23.510  1.00  0.00     0.217 C 
BRANCH  44  45
ATOM     45  O   UNL     1      62.244  26.000  24.779  1.00  0.00    -0.391 OA
ATOM     46  H   UNL     1      61.659  25.311  25.182  1.00  0.00     0.210 HD
ENDBRANCH  44  45
ENDBRANCH  43  44
ENDBRANCH  37  43
ENDBRANCH  36  37
ENDBRANCH  35  36
ENDBRANCH  34  35
ENDBRANCH   1  34
TORSDOF 18
ENDMDL
MODEL 17
REMARK VINA RESULT:    -7.262      6.101     12.718
REMARK INTER + INTRA:         -15.690
REMARK INTER:                 -14.330
REMARK INTRA:                  -1.360
REMARK UNBOUND:                -1.423
REMARK SMILES COc1cc2sc(CNC(=O)C3(CC(=O)O)Cc4cc(F)c(F)cc4C3)nc2cc1OCCC[N+](C)(CCO)CCO
REMARK SMILES IDX 31 1 30 2 3 3 4 4 5 5 29 6 6 7 28 8 7 9 27 10 2 11 1 12 8 13
REMARK SMILES IDX 9 14 10 15 11 16 12 18 17 19 26 20 18 21 25 22 19 23 24 24
REMARK SMILES IDX 20 25 22 26 21 27 23 28 13 29 14 30 15 31 16 32 32 34 33 35
REMARK SMILES IDX 34 36 35 37 36 38 37 39 38 40 39 41 40 43 41 44 42 45
REMARK H PARENT 9 17 16 33 39 42 42 46
ROOT
ATOM      1  O   UNL     1      48.927  32.080  17.758  1.00  0.00    -0.489 OA
ENDROOT
BRANCH   1   2
ATOM      2  C   UNL     1      50.044  32.646  18.316  1.00  0.00     0.163 A 
ATOM      3  C   UNL     1      51.275  32.005  18.011  1.00  0.00     0.162 A 
ATOM      4  C   UNL     1      52.459  32.495  18.512  1.00  0.00     0.071 A 
ATOM      5  C   UNL     1      52.425  33.626  19.328  1.00  0.00     0.059 A 
ATOM      6  C   UNL     1      50.024  33.777  19.122  1.00  0.00     0.080 A 
ATOM      7  S   UNL     1      53.752  34.456  20.080  1.00  0.00    -0.117 S 
ATOM      8  C   UNL     1      51.222  34.276  19.641  1.00  0.00     0.086 A 
ATOM      9  C   UNL     1      52.615  35.583  20.769  1.00  0.00     0.113 A 
ATOM     10  N   UNL     1      51.368  35.412  20.442  1.00  0.00    -0.239 NA
BRANCH   3  11
ATOM     11  O   UNL     1      51.184  30.901  17.204  1.00  0.00    -0.493 OA
ATOM     12  C   UNL     1      52.009  30.852  16.037  1.00  0.00     0.278 C 
ENDBRANCH   3  11
BRANCH   9  13
ATOM     13  C   UNL     1      53.113  36.599  21.753  1.00  0.00     0.183 C 
BRANCH  13  14
ATOM     14  N   UNL     1      54.500  36.392  22.124  1.00  0.00    -0.349 N 
ATOM     15  C   UNL     1      55.286  37.400  22.536  1.00  0.00     0.227 C 
ATOM     16  O   UNL     1      55.054  38.586  22.303  1.00  0.00    -0.274 OA
ATOM     17  H   UNL     1      54.895  35.442  22.071  1.00  0.00     0.163 HD
BRANCH  15  18
ATOM     18  C   UNL     1      56.578  37.008  23.240  1.00  0.00     0.068 C 
ATOM     19  C   UNL     1      57.155  35.887  22.350  1.00  0.00     0.053 C 
ATOM     20  C   UNL     1      57.711  38.052  23.094  1.00  0.00     0.053 C 
ATOM     21  C   UNL     1      57.691  36.681  21.183  1.00  0.00    -0.041 A 
ATOM     22  C   UNL     1      58.049  37.938  21.632  1.00  0.00    -0.041 A 
ATOM     23  C   UNL     1      57.862  36.344  19.846  1.00  0.00     0.046 A 
ATOM     24  C   UNL     1      58.596  38.880  20.774  1.00  0.00     0.046 A 
ATOM     25  C   UNL     1      58.404  37.293  18.995  1.00  0.00     0.159 A 
ATOM     26  C   UNL     1      58.769  38.539  19.450  1.00  0.00     0.159 A 
ATOM     27  F   UNL     1      58.604  36.992  17.689  1.00  0.00    -0.204 F 
ATOM     28  F   UNL     1      59.300  39.442  18.592  1.00  0.00    -0.204 F 
BRANCH  18  29
ATOM     29  C   UNL     1      56.358  36.686  24.731  1.00  0.00     0.140 C 
BRANCH  29  30
ATOM     30  C   UNL     1      54.991  36.136  25.118  1.00  0.00     0.304 C 
ATOM     31  O   UNL     1      54.272  36.849  25.850  1.00  0.00    -0.252 OA
BRANCH  30  32
ATOM     32  O   UNL     1      54.677  34.996  24.692  1.00  0.00    -0.481 OA
ATOM     33  H   UNL     1      54.356  34.303  25.323  1.00  0.00     0.296 HD
ENDBRANCH  30  32
ENDBRANCH  29  30
ENDBRANCH  18  29
ENDBRANCH  15  18
ENDBRANCH  13  14
ENDBRANCH   9  13
ENDBRANCH   1   2
BRANCH   1  34
ATOM     34  C   UNL     1      47.636  32.653  18.021  1.00  0.00     0.235 C 
BRANCH  34  35
ATOM     35  C   UNL     1      47.170  33.402  16.799  1.00  0.00     0.103 C 
BRANCH  35  36
ATOM     36  C   UNL     1      47.660  32.793  15.492  1.00  0.00     0.267 C 
BRANCH  36  37
ATOM     37  N   UNL     1      46.671  31.976  14.665  1.00  0.00    -0.322 N 
ATOM     38  C   UNL     1      47.164  31.909  13.242  1.00  0.00     0.334 C 
BRANCH  37  39
ATOM     39  C   UNL     1      46.648  30.570  15.263  1.00  0.00     0.292 C 
BRANCH  39  40
ATOM     40  C   UNL     1      45.463  30.196  16.129  1.00  0.00     0.217 C 
BRANCH  40  41
ATOM     41  O   UNL     1      45.842  29.211  17.072  1.00  0.00    -0.391 OA
ATOM     42  H   UNL     1      46.095  28.379  16.598  1.00  0.00     0.210 HD
ENDBRANCH  40  41
ENDBRANCH  39  40
ENDBRANCH  37  39
BRANCH  37  43
ATOM     43  C   UNL     1      45.294  32.630  14.657  1.00  0.00     0.292 C 
BRANCH  43  44
ATOM     44  C   UNL     1      45.065  33.719  13.628  1.00  0.00     0.217 C 
BRANCH  44  45
ATOM     45  O   UNL     1      44.995  34.977  14.269  1.00  0.00    -0.391 OA
ATOM     46  H   UNL     1      45.384  35.671  13.678  1.00  0.00     0.210 HD
ENDBRANCH  44  45
ENDBRANCH  43  44
ENDBRANCH  37  43
ENDBRANCH  36  37
ENDBRANCH  35  36
ENDBRANCH  34  35
ENDBRANCH   1  34
TORSDOF 18
ENDMDL
MODEL 18
REMARK VINA RESULT:    -7.256      8.387     12.372
REMARK INTER + INTRA:         -15.678
REMARK INTER:                 -14.200
REMARK INTRA:                  -1.479
REMARK UNBOUND:                -1.423
REMARK SMILES COc1cc2sc(CNC(=O)C3(CC(=O)O)Cc4cc(F)c(F)cc4C3)nc2cc1OCCC[N+](C)(CCO)CCO
REMARK SMILES IDX 31 1 30 2 3 3 4 4 5 5 29 6 6 7 28 8 7 9 27 10 2 11 1 12 8 13
REMARK SMILES IDX 9 14 10 15 11 16 12 18 17 19 26 20 18 21 25 22 19 23 24 24
REMARK SMILES IDX 20 25 22 26 21 27 23 28 13 29 14 30 15 31 16 32 32 34 33 35
REMARK SMILES IDX 34 36 35 37 36 38 37 39 38 40 39 41 40 43 41 44 42 45
REMARK H PARENT 9 17 16 33 39 42 42 46
ROOT
ATOM      1  O   UNL     1      53.278  34.812  20.817  1.00  0.00    -0.489 OA
ENDROOT
BRANCH   1   2
ATOM      2  C   UNL     1      53.057  34.145  19.639  1.00  0.00     0.163 A 
ATOM      3  C   UNL     1      54.198  33.967  18.812  1.00  0.00     0.162 A 
ATOM      4  C   UNL     1      54.092  33.303  17.611  1.00  0.00     0.071 A 
ATOM      5  C   UNL     1      52.844  32.817  17.222  1.00  0.00     0.059 A 
ATOM      6  C   UNL     1      51.822  33.649  19.245  1.00  0.00     0.080 A 
ATOM      7  S   UNL     1      52.426  31.943  15.780  1.00  0.00    -0.117 S 
ATOM      8  C   UNL     1      51.704  32.980  18.023  1.00  0.00     0.086 A 
ATOM      9  C   UNL     1      50.775  31.881  16.335  1.00  0.00     0.113 A 
ATOM     10  N   UNL     1      50.542  32.405  17.503  1.00  0.00    -0.239 NA
BRANCH   3  11
ATOM     11  O   UNL     1      55.369  34.490  19.295  1.00  0.00    -0.493 OA
ATOM     12  C   UNL     1      56.532  34.416  18.465  1.00  0.00     0.278 C 
ENDBRANCH   3  11
BRANCH   9  13
ATOM     13  C   UNL     1      49.726  31.330  15.416  1.00  0.00     0.183 C 
BRANCH  13  14
ATOM     14  N   UNL     1      48.442  31.987  15.567  1.00  0.00    -0.349 N 
ATOM     15  C   UNL     1      47.611  32.175  14.530  1.00  0.00     0.227 C 
ATOM     16  O   UNL     1      47.972  32.157  13.353  1.00  0.00    -0.274 OA
ATOM     17  H   UNL     1      48.158  32.321  16.499  1.00  0.00     0.163 HD
BRANCH  15  18
ATOM     18  C   UNL     1      46.170  32.529  14.870  1.00  0.00     0.068 C 
ATOM     19  C   UNL     1      45.357  31.910  13.713  1.00  0.00     0.053 C 
ATOM     20  C   UNL     1      45.587  31.715  16.049  1.00  0.00     0.053 C 
ATOM     21  C   UNL     1      45.388  30.445  14.080  1.00  0.00    -0.041 A 
ATOM     22  C   UNL     1      45.488  30.336  15.453  1.00  0.00    -0.041 A 
ATOM     23  C   UNL     1      45.330  29.302  13.292  1.00  0.00     0.046 A 
ATOM     24  C   UNL     1      45.514  29.098  16.077  1.00  0.00     0.046 A 
ATOM     25  C   UNL     1      45.364  28.069  13.924  1.00  0.00     0.159 A 
ATOM     26  C   UNL     1      45.450  27.967  15.293  1.00  0.00     0.159 A 
ATOM     27  F   UNL     1      45.288  26.933  13.189  1.00  0.00    -0.204 F 
ATOM     28  F   UNL     1      45.476  26.746  15.879  1.00  0.00    -0.204 F 
BRANCH  18  29
ATOM     29  C   UNL     1      45.985  34.035  15.137  1.00  0.00     0.140 C 
BRANCH  29  30
ATOM     30  C   UNL     1      45.972  34.476  16.595  1.00  0.00     0.304 C 
ATOM     31  O   UNL     1      44.889  34.888  17.060  1.00  0.00    -0.252 OA
BRANCH  30  32
ATOM     32  O   UNL     1      47.052  34.414  17.235  1.00  0.00    -0.481 OA
ATOM     33  H   UNL     1      47.086  34.710  18.179  1.00  0.00     0.296 HD
ENDBRANCH  30  32
ENDBRANCH  29  30
ENDBRANCH  18  29
ENDBRANCH  15  18
ENDBRANCH  13  14
ENDBRANCH   9  13
ENDBRANCH   1   2
BRANCH   1  34
ATOM     34  C   UNL     1      52.456  35.941  21.156  1.00  0.00     0.235 C 
BRANCH  34  35
ATOM     35  C   UNL     1      53.296  36.964  21.876  1.00  0.00     0.103 C 
BRANCH  35  36
ATOM     36  C   UNL     1      52.812  37.258  23.290  1.00  0.00     0.267 C 
BRANCH  36  37
ATOM     37  N   UNL     1      53.828  37.184  24.427  1.00  0.00    -0.322 N 
ATOM     38  C   UNL     1      53.974  35.747  24.857  1.00  0.00     0.334 C 
BRANCH  37  39
ATOM     39  C   UNL     1      55.158  37.686  23.866  1.00  0.00     0.292 C 
BRANCH  39  40
ATOM     40  C   UNL     1      56.391  36.849  24.133  1.00  0.00     0.217 C 
BRANCH  40  41
ATOM     41  O   UNL     1      56.962  36.422  22.910  1.00  0.00    -0.391 OA
ATOM     42  H   UNL     1      57.911  36.179  23.055  1.00  0.00     0.210 HD
ENDBRANCH  40  41
ENDBRANCH  39  40
ENDBRANCH  37  39
BRANCH  37  43
ATOM     43  C   UNL     1      53.360  37.992  25.632  1.00  0.00     0.292 C 
BRANCH  43  44
ATOM     44  C   UNL     1      53.890  39.407  25.749  1.00  0.00     0.217 C 
BRANCH  44  45
ATOM     45  O   UNL     1      54.778  39.498  26.845  1.00  0.00    -0.391 OA
ATOM     46  H   UNL     1      55.020  40.446  26.996  1.00  0.00     0.210 HD
ENDBRANCH  44  45
ENDBRANCH  43  44
ENDBRANCH  37  43
ENDBRANCH  36  37
ENDBRANCH  35  36
ENDBRANCH  34  35
ENDBRANCH   1  34
TORSDOF 18
ENDMDL
MODEL 19
REMARK VINA RESULT:    -7.220      5.920     12.234
REMARK INTER + INTRA:         -15.608
REMARK INTER:                 -14.939
REMARK INTRA:                  -0.668
REMARK UNBOUND:                -1.423
REMARK SMILES COc1cc2sc(CNC(=O)C3(CC(=O)O)Cc4cc(F)c(F)cc4C3)nc2cc1OCCC[N+](C)(CCO)CCO
REMARK SMILES IDX 31 1 30 2 3 3 4 4 5 5 29 6 6 7 28 8 7 9 27 10 2 11 1 12 8 13
REMARK SMILES IDX 9 14 10 15 11 16 12 18 17 19 26 20 18 21 25 22 19 23 24 24
REMARK SMILES IDX 20 25 22 26 21 27 23 28 13 29 14 30 15 31 16 32 32 34 33 35
REMARK SMILES IDX 34 36 35 37 36 38 37 39 38 40 39 41 40 43 41 44 42 45
REMARK H PARENT 9 17 16 33 39 42 42 46
ROOT
ATOM      1  O   UNL     1      50.048  31.097  16.061  1.00  0.00    -0.489 OA
ENDROOT
BRANCH   1   2
ATOM      2  C   UNL     1      50.791  31.785  16.984  1.00  0.00     0.163 A 
ATOM      3  C   UNL     1      52.173  31.458  17.028  1.00  0.00     0.162 A 
ATOM      4  C   UNL     1      53.013  32.095  17.912  1.00  0.00     0.071 A 
ATOM      5  C   UNL     1      52.480  33.060  18.766  1.00  0.00     0.059 A 
ATOM      6  C   UNL     1      50.274  32.754  17.834  1.00  0.00     0.080 A 
ATOM      7  S   UNL     1      53.300  34.017  19.961  1.00  0.00    -0.117 S 
ATOM      8  C   UNL     1      51.120  33.400  18.741  1.00  0.00     0.086 A 
ATOM      9  C   UNL     1      51.780  34.776  20.350  1.00  0.00     0.113 A 
ATOM     10  N   UNL     1      50.756  34.409  19.637  1.00  0.00    -0.239 NA
BRANCH   3  11
ATOM     11  O   UNL     1      52.581  30.492  16.145  1.00  0.00    -0.493 OA
ATOM     12  C   UNL     1      52.975  29.223  16.673  1.00  0.00     0.278 C 
ENDBRANCH   3  11
BRANCH   9  13
ATOM     13  C   UNL     1      51.721  35.712  21.520  1.00  0.00     0.183 C 
BRANCH  13  14
ATOM     14  N   UNL     1      52.924  36.508  21.668  1.00  0.00    -0.349 N 
ATOM     15  C   UNL     1      53.872  36.207  22.569  1.00  0.00     0.227 C 
ATOM     16  O   UNL     1      53.675  35.501  23.557  1.00  0.00    -0.274 OA
ATOM     17  H   UNL     1      53.055  37.332  21.063  1.00  0.00     0.163 HD
BRANCH  15  18
ATOM     18  C   UNL     1      55.226  36.877  22.379  1.00  0.00     0.068 C 
ATOM     19  C   UNL     1      54.926  38.377  22.586  1.00  0.00     0.053 C 
ATOM     20  C   UNL     1      56.206  36.653  23.554  1.00  0.00     0.053 C 
ATOM     21  C   UNL     1      54.779  38.445  24.087  1.00  0.00    -0.041 A 
ATOM     22  C   UNL     1      55.559  37.455  24.652  1.00  0.00    -0.041 A 
ATOM     23  C   UNL     1      54.037  39.295  24.898  1.00  0.00     0.046 A 
ATOM     24  C   UNL     1      55.636  37.296  26.028  1.00  0.00     0.046 A 
ATOM     25  C   UNL     1      54.115  39.125  26.270  1.00  0.00     0.159 A 
ATOM     26  C   UNL     1      54.904  38.145  26.828  1.00  0.00     0.159 A 
ATOM     27  F   UNL     1      53.422  39.950  27.093  1.00  0.00    -0.204 F 
ATOM     28  F   UNL     1      54.961  38.009  28.174  1.00  0.00    -0.204 F 
BRANCH  18  29
ATOM     29  C   UNL     1      55.901  36.467  21.055  1.00  0.00     0.140 C 
BRANCH  29  30
ATOM     30  C   UNL     1      57.320  36.971  20.824  1.00  0.00     0.304 C 
ATOM     31  O   UNL     1      57.451  38.134  20.388  1.00  0.00    -0.252 OA
BRANCH  30  32
ATOM     32  O   UNL     1      58.268  36.183  21.070  1.00  0.00    -0.481 OA
ATOM     33  H   UNL     1      59.061  36.503  21.568  1.00  0.00     0.296 HD
ENDBRANCH  30  32
ENDBRANCH  29  30
ENDBRANCH  18  29
ENDBRANCH  15  18
ENDBRANCH  13  14
ENDBRANCH   9  13
ENDBRANCH   1   2
BRANCH   1  34
ATOM     34  C   UNL     1      49.794  31.685  14.775  1.00  0.00     0.235 C 
BRANCH  34  35
ATOM     35  C   UNL     1      48.321  31.588  14.469  1.00  0.00     0.103 C 
BRANCH  35  36
ATOM     36  C   UNL     1      47.510  32.753  15.021  1.00  0.00     0.267 C 
BRANCH  36  37
ATOM     37  N   UNL     1      45.998  32.583  15.138  1.00  0.00    -0.322 N 
ATOM     38  C   UNL     1      45.465  32.043  13.835  1.00  0.00     0.334 C 
BRANCH  37  39
ATOM     39  C   UNL     1      45.751  31.565  16.251  1.00  0.00     0.292 C 
BRANCH  39  40
ATOM     40  C   UNL     1      45.404  30.149  15.840  1.00  0.00     0.217 C 
BRANCH  40  41
ATOM     41  O   UNL     1      44.579  29.549  16.821  1.00  0.00    -0.391 OA
ATOM     42  H   UNL     1      43.960  28.909  16.386  1.00  0.00     0.210 HD
ENDBRANCH  40  41
ENDBRANCH  39  40
ENDBRANCH  37  39
BRANCH  37  43
ATOM     43  C   UNL     1      45.317  33.920  15.408  1.00  0.00     0.292 C 
BRANCH  43  44
ATOM     44  C   UNL     1      45.402  34.452  16.824  1.00  0.00     0.217 C 
BRANCH  44  45
ATOM     45  O   UNL     1      44.482  35.512  16.995  1.00  0.00    -0.391 OA
ATOM     46  H   UNL     1      44.052  35.719  16.127  1.00  0.00     0.210 HD
ENDBRANCH  44  45
ENDBRANCH  43  44
ENDBRANCH  37  43
ENDBRANCH  36  37
ENDBRANCH  35  36
ENDBRANCH  34  35
ENDBRANCH   1  34
TORSDOF 18
ENDMDL
MODEL 20
REMARK VINA RESULT:    -6.988     10.849     12.921
REMARK INTER + INTRA:         -15.151
REMARK INTER:                 -12.506
REMARK INTRA:                  -2.646
REMARK UNBOUND:                -1.423
REMARK SMILES COc1cc2sc(CNC(=O)C3(CC(=O)O)Cc4cc(F)c(F)cc4C3)nc2cc1OCCC[N+](C)(CCO)CCO
REMARK SMILES IDX 31 1 30 2 3 3 4 4 5 5 29 6 6 7 28 8 7 9 27 10 2 11 1 12 8 13
REMARK SMILES IDX 9 14 10 15 11 16 12 18 17 19 26 20 18 21 25 22 19 23 24 24
REMARK SMILES IDX 20 25 22 26 21 27 23 28 13 29 14 30 15 31 16 32 32 34 33 35
REMARK SMILES IDX 34 36 35 37 36 38 37 39 38 40 39 41 40 43 41 44 42 45
REMARK H PARENT 9 17 16 33 39 42 42 46
ROOT
ATOM      1  O   UNL     1      54.806  32.715  14.974  1.00  0.00    -0.489 OA
ENDROOT
BRANCH   1   2
ATOM      2  C   UNL     1      53.799  32.268  15.789  1.00  0.00     0.163 A 
ATOM      3  C   UNL     1      53.789  30.870  16.043  1.00  0.00     0.162 A 
ATOM      4  C   UNL     1      52.827  30.316  16.855  1.00  0.00     0.071 A 
ATOM      5  C   UNL     1      51.861  31.150  17.417  1.00  0.00     0.059 A 
ATOM      6  C   UNL     1      52.837  33.090  16.362  1.00  0.00     0.080 A 
ATOM      7  S   UNL     1      50.551  30.728  18.475  1.00  0.00    -0.117 S 
ATOM      8  C   UNL     1      51.851  32.533  17.181  1.00  0.00     0.086 A 
ATOM      9  C   UNL     1      50.078  32.405  18.507  1.00  0.00     0.113 A 
ATOM     10  N   UNL     1      50.837  33.228  17.846  1.00  0.00    -0.239 NA
BRANCH   3  11
ATOM     11  O   UNL     1      54.784  30.150  15.434  1.00  0.00    -0.493 OA
ATOM     12  C   UNL     1      54.534  28.772  15.142  1.00  0.00     0.278 C 
ENDBRANCH   3  11
BRANCH   9  13
ATOM     13  C   UNL     1      48.799  32.781  19.195  1.00  0.00     0.183 C 
BRANCH  13  14
ATOM     14  N   UNL     1      47.624  32.505  18.391  1.00  0.00    -0.349 N 
ATOM     15  C   UNL     1      47.256  33.296  17.371  1.00  0.00     0.227 C 
ATOM     16  O   UNL     1      47.624  34.463  17.245  1.00  0.00    -0.274 OA
ATOM     17  H   UNL     1      47.052  31.676  18.611  1.00  0.00     0.163 HD
BRANCH  15  18
ATOM     18  C   UNL     1      46.246  32.714  16.391  1.00  0.00     0.068 C 
ATOM     19  C   UNL     1      46.836  33.061  15.008  1.00  0.00     0.053 C 
ATOM     20  C   UNL     1      46.282  31.170  16.298  1.00  0.00     0.053 C 
ATOM     21  C   UNL     1      47.955  32.052  14.901  1.00  0.00    -0.041 A 
ATOM     22  C   UNL     1      47.610  30.931  15.631  1.00  0.00    -0.041 A 
ATOM     23  C   UNL     1      49.168  32.098  14.226  1.00  0.00     0.046 A 
ATOM     24  C   UNL     1      48.446  29.827  15.694  1.00  0.00     0.046 A 
ATOM     25  C   UNL     1      50.001  30.992  14.299  1.00  0.00     0.159 A 
ATOM     26  C   UNL     1      49.646  29.874  15.017  1.00  0.00     0.159 A 
ATOM     27  F   UNL     1      51.182  30.993  13.635  1.00  0.00    -0.204 F 
ATOM     28  F   UNL     1      50.481  28.809  15.065  1.00  0.00    -0.204 F 
BRANCH  18  29
ATOM     29  C   UNL     1      44.808  33.183  16.685  1.00  0.00     0.140 C 
BRANCH  29  30
ATOM     30  C   UNL     1      44.449  34.601  16.257  1.00  0.00     0.304 C 
ATOM     31  O   UNL     1      43.968  34.750  15.115  1.00  0.00    -0.252 OA
BRANCH  30  32
ATOM     32  O   UNL     1      44.673  35.532  17.071  1.00  0.00    -0.481 OA
ATOM     33  H   UNL     1      44.070  35.670  17.843  1.00  0.00     0.296 HD
ENDBRANCH  30  32
ENDBRANCH  29  30
ENDBRANCH  18  29
ENDBRANCH  15  18
ENDBRANCH  13  14
ENDBRANCH   9  13
ENDBRANCH   1   2
BRANCH   1  34
ATOM     34  C   UNL     1      55.164  34.107  14.989  1.00  0.00     0.235 C 
BRANCH  34  35
ATOM     35  C   UNL     1      54.465  34.808  13.852  1.00  0.00     0.103 C 
BRANCH  35  36
ATOM     36  C   UNL     1      55.276  34.829  12.563  1.00  0.00     0.267 C 
BRANCH  36  37
ATOM     37  N   UNL     1      54.532  34.645  11.243  1.00  0.00    -0.322 N 
ATOM     38  C   UNL     1      55.083  33.432  10.538  1.00  0.00     0.334 C 
BRANCH  37  39
ATOM     39  C   UNL     1      53.063  34.407  11.593  1.00  0.00     0.292 C 
BRANCH  39  40
ATOM     40  C   UNL     1      52.193  33.742  10.546  1.00  0.00     0.217 C 
BRANCH  40  41
ATOM     41  O   UNL     1      51.031  33.207  11.151  1.00  0.00    -0.391 OA
ATOM     42  H   UNL     1      50.254  33.786  10.944  1.00  0.00     0.210 HD
ENDBRANCH  40  41
ENDBRANCH  39  40
ENDBRANCH  37  39
BRANCH  37  43
ATOM     43  C   UNL     1      54.728  35.850  10.332  1.00  0.00     0.292 C 
BRANCH  43  44
ATOM     44  C   UNL     1      53.843  37.052  10.595  1.00  0.00     0.217 C 
BRANCH  44  45
ATOM     45  O   UNL     1      54.484  37.933  11.496  1.00  0.00    -0.391 OA
ATOM     46  H   UNL     1      53.810  38.527  11.912  1.00  0.00     0.210 HD
ENDBRANCH  44  45
ENDBRANCH  43  44
ENDBRANCH  37  43
ENDBRANCH  36  37
ENDBRANCH  35  36
ENDBRANCH  34  35
ENDBRANCH   1  34
TORSDOF 18
ENDMDL
