MODEL 1
REMARK VINA RESULT:    -7.686      0.000      0.000
REMARK INTER + INTRA:         -11.776
REMARK INTER:                 -10.832
REMARK INTRA:                  -0.944
REMARK UNBOUND:                -0.944
REMARK SMILES CC(C)C[C@H](C(=O)Nc1ccc(C(F)(F)F)cc1)P(=O)(O)O
REMARK SMILES IDX 6 1 8 2 7 3 9 5 10 6 11 7 18 8 12 9 17 10 13 11 14 12 15 13
REMARK SMILES IDX 16 14 5 15 4 16 2 17 1 18 3 19 19 20 20 21 22 22 21 24
REMARK H PARENT 8 4 22 23 21 25
ROOT
ATOM      1  C   UNL     1      50.007  33.073  19.181  1.00  0.00     0.239 C 
ATOM      2  N   UNL     1      49.709  33.297  17.786  1.00  0.00    -0.325 N 
ATOM      3  O   UNL     1      49.155  32.878  19.980  1.00  0.00    -0.274 OA
ATOM      4  H   UNL     1      50.487  33.480  17.136  1.00  0.00     0.169 HD
ENDROOT
BRANCH   2   5
ATOM      5  C   UNL     1      48.358  33.274  17.267  1.00  0.00     0.041 A 
ATOM      6  C   UNL     1      47.701  34.483  17.143  1.00  0.00     0.027 A 
ATOM      7  C   UNL     1      46.416  34.533  16.648  1.00  0.00     0.015 A 
ATOM      8  C   UNL     1      47.729  32.097  16.883  1.00  0.00     0.027 A 
ATOM      9  C   UNL     1      45.782  33.367  16.271  1.00  0.00     0.056 A 
ATOM     10  C   UNL     1      46.432  32.148  16.387  1.00  0.00     0.015 A 
BRANCH   9  11
ATOM     11  C   UNL     1      44.363  33.441  15.718  1.00  0.00     0.416 C 
ATOM     12  F   UNL     1      43.902  32.181  15.483  1.00  0.00    -0.166 F 
ATOM     13  F   UNL     1      44.358  34.152  14.555  1.00  0.00    -0.166 F 
ATOM     14  F   UNL     1      43.569  34.086  16.623  1.00  0.00    -0.166 F 
ENDBRANCH   9  11
ENDBRANCH   2   5
BRANCH   1  15
ATOM     15  C   UNL     1      51.461  33.135  19.620  1.00  0.00     0.194 C 
BRANCH  15  16
ATOM     16  C   UNL     1      52.283  33.027  18.344  1.00  0.00     0.029 C 
BRANCH  16  17
ATOM     17  C   UNL     1      53.486  32.115  18.583  1.00  0.00    -0.016 C 
ATOM     18  C   UNL     1      54.737  32.987  18.517  1.00  0.00     0.007 C 
ATOM     19  C   UNL     1      53.619  30.996  17.550  1.00  0.00     0.007 C 
ENDBRANCH  16  17
ENDBRANCH  15  16
BRANCH  15  20
ATOM     20  P   UNL     1      51.811  34.714  20.511  1.00  0.00     0.337 P 
ATOM     21  O   UNL     1      52.211  35.793  19.628  1.00  0.00    -0.260 OA
BRANCH  20  22
ATOM     22  O   UNL     1      52.871  34.594  21.511  1.00  0.00    -0.324 OA
ATOM     23  H   UNL     1      53.537  35.314  21.375  1.00  0.00     0.221 HD
ENDBRANCH  20  22
BRANCH  20  24
ATOM     24  O   UNL     1      50.663  35.240  21.244  1.00  0.00    -0.324 OA
ATOM     25  H   UNL     1      50.148  35.848  20.656  1.00  0.00     0.221 HD
ENDBRANCH  20  24
ENDBRANCH  15  20
ENDBRANCH   1  15
TORSDOF 8
ENDMDL
MODEL 2
REMARK VINA RESULT:    -7.638      6.095      7.842
REMARK INTER + INTRA:         -11.707
REMARK INTER:                 -10.905
REMARK INTRA:                  -0.802
REMARK UNBOUND:                -0.944
REMARK SMILES CC(C)C[C@H](C(=O)Nc1ccc(C(F)(F)F)cc1)P(=O)(O)O
REMARK SMILES IDX 6 1 8 2 7 3 9 5 10 6 11 7 18 8 12 9 17 10 13 11 14 12 15 13
REMARK SMILES IDX 16 14 5 15 4 16 2 17 1 18 3 19 19 20 20 21 22 22 21 24
REMARK H PARENT 8 4 22 23 21 25
ROOT
ATOM      1  C   UNL     1      53.420  37.297  23.130  1.00  0.00     0.239 C 
ATOM      2  N   UNL     1      53.590  35.903  22.795  1.00  0.00    -0.325 N 
ATOM      3  O   UNL     1      52.853  38.049  22.411  1.00  0.00    -0.274 OA
ATOM      4  H   UNL     1      54.108  35.296  23.447  1.00  0.00     0.169 HD
ENDROOT
BRANCH   2   5
ATOM      5  C   UNL     1      53.059  35.325  21.578  1.00  0.00     0.041 A 
ATOM      6  C   UNL     1      53.964  34.843  20.653  1.00  0.00     0.027 A 
ATOM      7  C   UNL     1      53.525  34.274  19.477  1.00  0.00     0.015 A 
ATOM      8  C   UNL     1      51.695  35.230  21.334  1.00  0.00     0.027 A 
ATOM      9  C   UNL     1      52.171  34.182  19.224  1.00  0.00     0.056 A 
ATOM     10  C   UNL     1      51.253  34.659  20.147  1.00  0.00     0.015 A 
BRANCH   9  11
ATOM     11  C   UNL     1      51.704  33.543  17.922  1.00  0.00     0.416 C 
ATOM     12  F   UNL     1      52.471  33.997  16.892  1.00  0.00    -0.166 F 
ATOM     13  F   UNL     1      50.399  33.863  17.693  1.00  0.00    -0.166 F 
ATOM     14  F   UNL     1      51.802  32.185  18.036  1.00  0.00    -0.166 F 
ENDBRANCH   9  11
ENDBRANCH   2   5
BRANCH   1  15
ATOM     15  C   UNL     1      54.034  37.801  24.426  1.00  0.00     0.194 C 
BRANCH  15  16
ATOM     16  C   UNL     1      52.867  38.021  25.377  1.00  0.00     0.029 C 
BRANCH  16  17
ATOM     17  C   UNL     1      52.860  39.473  25.855  1.00  0.00    -0.016 C 
ATOM     18  C   UNL     1      54.028  39.637  26.825  1.00  0.00     0.007 C 
ATOM     19  C   UNL     1      51.572  39.874  26.574  1.00  0.00     0.007 C 
ENDBRANCH  16  17
ENDBRANCH  15  16
BRANCH  15  20
ATOM     20  P   UNL     1      55.232  36.572  25.107  1.00  0.00     0.337 P 
ATOM     21  O   UNL     1      55.887  37.024  26.319  1.00  0.00    -0.260 OA
BRANCH  20  22
ATOM     22  O   UNL     1      56.301  36.224  24.174  1.00  0.00    -0.324 OA
ATOM     23  H   UNL     1      56.226  36.784  23.361  1.00  0.00     0.221 HD
ENDBRANCH  20  22
BRANCH  20  24
ATOM     24  O   UNL     1      54.621  35.297  25.470  1.00  0.00    -0.324 OA
ATOM     25  H   UNL     1      54.681  34.673  24.704  1.00  0.00     0.221 HD
ENDBRANCH  20  24
ENDBRANCH  15  20
ENDBRANCH   1  15
TORSDOF 8
ENDMDL
MODEL 3
REMARK VINA RESULT:    -7.573      4.457      5.833
REMARK INTER + INTRA:         -11.617
REMARK INTER:                 -10.721
REMARK INTRA:                  -0.895
REMARK UNBOUND:                -0.944
REMARK SMILES CC(C)C[C@H](C(=O)Nc1ccc(C(F)(F)F)cc1)P(=O)(O)O
REMARK SMILES IDX 6 1 8 2 7 3 9 5 10 6 11 7 18 8 12 9 17 10 13 11 14 12 15 13
REMARK SMILES IDX 16 14 5 15 4 16 2 17 1 18 3 19 19 20 20 21 22 22 21 24
REMARK H PARENT 8 4 22 23 21 25
ROOT
ATOM      1  C   UNL     1      53.123  36.269  22.077  1.00  0.00     0.239 C 
ATOM      2  N   UNL     1      53.140  34.895  21.634  1.00  0.00    -0.325 N 
ATOM      3  O   UNL     1      52.467  37.093  21.535  1.00  0.00    -0.274 OA
ATOM      4  H   UNL     1      53.743  34.222  22.129  1.00  0.00     0.169 HD
ENDROOT
BRANCH   2   5
ATOM      5  C   UNL     1      52.342  34.427  20.520  1.00  0.00     0.041 A 
ATOM      6  C   UNL     1      51.087  33.923  20.803  1.00  0.00     0.027 A 
ATOM      7  C   UNL     1      50.273  33.467  19.788  1.00  0.00     0.015 A 
ATOM      8  C   UNL     1      52.788  34.489  19.207  1.00  0.00     0.027 A 
ATOM      9  C   UNL     1      50.712  33.519  18.481  1.00  0.00     0.056 A 
ATOM     10  C   UNL     1      51.968  34.027  18.186  1.00  0.00     0.015 A 
BRANCH   9  11
ATOM     11  C   UNL     1      49.795  33.019  17.372  1.00  0.00     0.416 C 
ATOM     12  F   UNL     1      50.541  32.691  16.280  1.00  0.00    -0.166 F 
ATOM     13  F   UNL     1      48.902  33.993  17.037  1.00  0.00    -0.166 F 
ATOM     14  F   UNL     1      49.101  31.933  17.826  1.00  0.00    -0.166 F 
ENDBRANCH   9  11
ENDBRANCH   2   5
BRANCH   1  15
ATOM     15  C   UNL     1      54.014  36.654  23.247  1.00  0.00     0.194 C 
BRANCH  15  16
ATOM     16  C   UNL     1      55.057  37.603  22.677  1.00  0.00     0.029 C 
BRANCH  16  17
ATOM     17  C   UNL     1      56.203  36.799  22.062  1.00  0.00    -0.016 C 
ATOM     18  C   UNL     1      57.252  36.597  23.152  1.00  0.00     0.007 C 
ATOM     19  C   UNL     1      56.866  37.492  20.872  1.00  0.00     0.007 C 
ENDBRANCH  16  17
ENDBRANCH  15  16
BRANCH  15  20
ATOM     20  P   UNL     1      53.030  37.463  24.584  1.00  0.00     0.337 P 
ATOM     21  O   UNL     1      53.821  37.803  25.750  1.00  0.00    -0.260 OA
BRANCH  20  22
ATOM     22  O   UNL     1      51.924  36.640  25.070  1.00  0.00    -0.324 OA
ATOM     23  H   UNL     1      52.226  36.106  25.847  1.00  0.00     0.221 HD
ENDBRANCH  20  22
BRANCH  20  24
ATOM     24  O   UNL     1      52.410  38.720  24.176  1.00  0.00    -0.324 OA
ATOM     25  H   UNL     1      51.516  38.538  23.793  1.00  0.00     0.221 HD
ENDBRANCH  20  24
ENDBRANCH  15  20
ENDBRANCH   1  15
TORSDOF 8
ENDMDL
MODEL 4
REMARK VINA RESULT:    -7.322      4.767      6.203
REMARK INTER + INTRA:         -11.263
REMARK INTER:                 -10.302
REMARK INTRA:                  -0.961
REMARK UNBOUND:                -0.944
REMARK SMILES CC(C)C[C@H](C(=O)Nc1ccc(C(F)(F)F)cc1)P(=O)(O)O
REMARK SMILES IDX 6 1 8 2 7 3 9 5 10 6 11 7 18 8 12 9 17 10 13 11 14 12 15 13
REMARK SMILES IDX 16 14 5 15 4 16 2 17 1 18 3 19 19 20 20 21 22 22 21 24
REMARK H PARENT 8 4 22 23 21 25
ROOT
ATOM      1  C   UNL     1      52.962  36.320  22.005  1.00  0.00     0.239 C 
ATOM      2  N   UNL     1      53.112  34.956  21.554  1.00  0.00    -0.325 N 
ATOM      3  O   UNL     1      52.171  37.056  21.521  1.00  0.00    -0.274 OA
ATOM      4  H   UNL     1      53.829  34.364  21.997  1.00  0.00     0.169 HD
ENDROOT
BRANCH   2   5
ATOM      5  C   UNL     1      52.293  34.391  20.503  1.00  0.00     0.041 A 
ATOM      6  C   UNL     1      52.801  34.408  19.219  1.00  0.00     0.027 A 
ATOM      7  C   UNL     1      52.075  33.879  18.173  1.00  0.00     0.015 A 
ATOM      8  C   UNL     1      51.047  33.828  20.752  1.00  0.00     0.027 A 
ATOM      9  C   UNL     1      50.834  33.326  18.412  1.00  0.00     0.056 A 
ATOM     10  C   UNL     1      50.316  33.298  19.697  1.00  0.00     0.015 A 
BRANCH   9  11
ATOM     11  C   UNL     1      50.049  32.738  17.245  1.00  0.00     0.416 C 
ATOM     12  F   UNL     1      49.467  31.569  17.633  1.00  0.00    -0.166 F 
ATOM     13  F   UNL     1      50.888  32.503  16.196  1.00  0.00    -0.166 F 
ATOM     14  F   UNL     1      49.103  33.640  16.848  1.00  0.00    -0.166 F 
ENDBRANCH   9  11
ENDBRANCH   2   5
BRANCH   1  15
ATOM     15  C   UNL     1      53.888  36.814  23.105  1.00  0.00     0.194 C 
BRANCH  15  16
ATOM     16  C   UNL     1      53.744  35.818  24.245  1.00  0.00     0.029 C 
BRANCH  16  17
ATOM     17  C   UNL     1      53.471  36.565  25.551  1.00  0.00    -0.016 C 
ATOM     18  C   UNL     1      52.970  37.959  25.180  1.00  0.00     0.007 C 
ATOM     19  C   UNL     1      54.706  36.714  26.439  1.00  0.00     0.007 C 
ENDBRANCH  16  17
ENDBRANCH  15  16
BRANCH  15  20
ATOM     20  P   UNL     1      55.632  36.902  22.507  1.00  0.00     0.337 P 
ATOM     21  O   UNL     1      56.004  38.217  22.020  1.00  0.00    -0.260 OA
BRANCH  20  22
ATOM     22  O   UNL     1      55.921  35.970  21.418  1.00  0.00    -0.324 OA
ATOM     23  H   UNL     1      55.434  35.122  21.571  1.00  0.00     0.221 HD
ENDBRANCH  20  22
BRANCH  20  24
ATOM     24  O   UNL     1      56.621  36.594  23.536  1.00  0.00    -0.324 OA
ATOM     25  H   UNL     1      57.065  37.430  23.827  1.00  0.00     0.221 HD
ENDBRANCH  20  24
ENDBRANCH  15  20
ENDBRANCH   1  15
TORSDOF 8
ENDMDL
MODEL 5
REMARK VINA RESULT:    -7.268      0.566      1.527
REMARK INTER + INTRA:         -11.186
REMARK INTER:                 -10.285
REMARK INTRA:                  -0.901
REMARK UNBOUND:                -0.944
REMARK SMILES CC(C)C[C@H](C(=O)Nc1ccc(C(F)(F)F)cc1)P(=O)(O)O
REMARK SMILES IDX 6 1 8 2 7 3 9 5 10 6 11 7 18 8 12 9 17 10 13 11 14 12 15 13
REMARK SMILES IDX 16 14 5 15 4 16 2 17 1 18 3 19 19 20 20 21 22 22 21 24
REMARK H PARENT 8 4 22 23 21 25
ROOT
ATOM      1  C   UNL     1      49.929  33.111  18.943  1.00  0.00     0.239 C 
ATOM      2  N   UNL     1      49.622  33.362  17.555  1.00  0.00    -0.325 N 
ATOM      3  O   UNL     1      49.083  32.884  19.740  1.00  0.00    -0.274 OA
ATOM      4  H   UNL     1      50.394  33.573  16.906  1.00  0.00     0.169 HD
ENDROOT
BRANCH   2   5
ATOM      5  C   UNL     1      48.269  33.329  17.040  1.00  0.00     0.041 A 
ATOM      6  C   UNL     1      47.815  32.134  16.515  1.00  0.00     0.027 A 
ATOM      7  C   UNL     1      46.535  32.032  16.015  1.00  0.00     0.015 A 
ATOM      8  C   UNL     1      47.431  34.436  17.077  1.00  0.00     0.027 A 
ATOM      9  C   UNL     1      45.699  33.129  16.042  1.00  0.00     0.056 A 
ATOM     10  C   UNL     1      46.142  34.332  16.571  1.00  0.00     0.015 A 
BRANCH   9  11
ATOM     11  C   UNL     1      44.284  32.996  15.493  1.00  0.00     0.416 C 
ATOM     12  F   UNL     1      44.325  32.992  14.131  1.00  0.00    -0.166 F 
ATOM     13  F   UNL     1      43.522  34.041  15.922  1.00  0.00    -0.166 F 
ATOM     14  F   UNL     1      43.734  31.838  15.963  1.00  0.00    -0.166 F 
ENDBRANCH   9  11
ENDBRANCH   2   5
BRANCH   1  15
ATOM     15  C   UNL     1      51.384  33.187  19.378  1.00  0.00     0.194 C 
BRANCH  15  16
ATOM     16  C   UNL     1      52.203  33.045  18.104  1.00  0.00     0.029 C 
BRANCH  16  17
ATOM     17  C   UNL     1      53.155  31.855  18.236  1.00  0.00    -0.016 C 
ATOM     18  C   UNL     1      54.499  32.283  17.652  1.00  0.00     0.007 C 
ATOM     19  C   UNL     1      52.679  30.607  17.494  1.00  0.00     0.007 C 
ENDBRANCH  16  17
ENDBRANCH  15  16
BRANCH  15  20
ATOM     20  P   UNL     1      51.733  34.790  20.225  1.00  0.00     0.337 P 
ATOM     21  O   UNL     1      52.993  34.795  20.942  1.00  0.00    -0.260 OA
BRANCH  20  22
ATOM     22  O   UNL     1      50.711  35.168  21.199  1.00  0.00    -0.324 OA
ATOM     23  H   UNL     1      51.001  35.980  21.684  1.00  0.00     0.221 HD
ENDBRANCH  20  22
BRANCH  20  24
ATOM     24  O   UNL     1      51.821  35.928  19.314  1.00  0.00    -0.324 OA
ATOM     25  H   UNL     1      52.077  35.609  18.412  1.00  0.00     0.221 HD
ENDBRANCH  20  24
ENDBRANCH  15  20
ENDBRANCH   1  15
TORSDOF 8
ENDMDL
MODEL 6
REMARK VINA RESULT:    -7.135      1.354      1.951
REMARK INTER + INTRA:         -10.999
REMARK INTER:                 -10.425
REMARK INTRA:                  -0.574
REMARK UNBOUND:                -0.944
REMARK SMILES CC(C)C[C@H](C(=O)Nc1ccc(C(F)(F)F)cc1)P(=O)(O)O
REMARK SMILES IDX 6 1 8 2 7 3 9 5 10 6 11 7 18 8 12 9 17 10 13 11 14 12 15 13
REMARK SMILES IDX 16 14 5 15 4 16 2 17 1 18 3 19 19 20 20 21 22 22 21 24
REMARK H PARENT 8 4 22 23 21 25
ROOT
ATOM      1  C   UNL     1      49.691  33.783  18.836  1.00  0.00     0.239 C 
ATOM      2  N   UNL     1      48.632  32.905  18.398  1.00  0.00    -0.325 N 
ATOM      3  O   UNL     1      49.968  34.773  18.248  1.00  0.00    -0.274 OA
ATOM      4  H   UNL     1      48.444  32.047  18.935  1.00  0.00     0.169 HD
ENDROOT
BRANCH   2   5
ATOM      5  C   UNL     1      47.822  33.188  17.231  1.00  0.00     0.041 A 
ATOM      6  C   UNL     1      46.681  33.944  17.414  1.00  0.00     0.027 A 
ATOM      7  C   UNL     1      45.870  34.255  16.344  1.00  0.00     0.015 A 
ATOM      8  C   UNL     1      48.167  32.743  15.961  1.00  0.00     0.027 A 
ATOM      9  C   UNL     1      46.202  33.810  15.080  1.00  0.00     0.056 A 
ATOM     10  C   UNL     1      47.348  33.054  14.884  1.00  0.00     0.015 A 
BRANCH   9  11
ATOM     11  C   UNL     1      45.298  34.171  13.907  1.00  0.00     0.416 C 
ATOM     12  F   UNL     1      45.655  33.436  12.818  1.00  0.00    -0.166 F 
ATOM     13  F   UNL     1      45.421  35.498  13.621  1.00  0.00    -0.166 F 
ATOM     14  F   UNL     1      44.001  33.921  14.255  1.00  0.00    -0.166 F 
ENDBRANCH   9  11
ENDBRANCH   2   5
BRANCH   1  15
ATOM     15  C   UNL     1      50.489  33.380  20.067  1.00  0.00     0.194 C 
BRANCH  15  16
ATOM     16  C   UNL     1      51.236  32.113  19.678  1.00  0.00     0.029 C 
BRANCH  16  17
ATOM     17  C   UNL     1      52.049  32.364  18.408  1.00  0.00    -0.016 C 
ATOM     18  C   UNL     1      51.605  31.333  17.374  1.00  0.00     0.007 C 
ATOM     19  C   UNL     1      53.558  32.229  18.612  1.00  0.00     0.007 C 
ENDBRANCH  16  17
ENDBRANCH  15  16
BRANCH  15  20
ATOM     20  P   UNL     1      51.656  34.723  20.561  1.00  0.00     0.337 P 
ATOM     21  O   UNL     1      51.025  35.771  21.340  1.00  0.00    -0.260 OA
BRANCH  20  22
ATOM     22  O   UNL     1      52.292  35.388  19.426  1.00  0.00    -0.324 OA
ATOM     23  H   UNL     1      51.651  35.442  18.673  1.00  0.00     0.221 HD
ENDBRANCH  20  22
BRANCH  20  24
ATOM     24  O   UNL     1      52.764  34.259  21.392  1.00  0.00    -0.324 OA
ATOM     25  H   UNL     1      53.476  33.887  20.814  1.00  0.00     0.221 HD
ENDBRANCH  20  24
ENDBRANCH  15  20
ENDBRANCH   1  15
TORSDOF 8
ENDMDL
MODEL 7
REMARK VINA RESULT:    -7.085      5.007      6.739
REMARK INTER + INTRA:         -10.929
REMARK INTER:                 -10.199
REMARK INTRA:                  -0.730
REMARK UNBOUND:                -0.944
REMARK SMILES CC(C)C[C@H](C(=O)Nc1ccc(C(F)(F)F)cc1)P(=O)(O)O
REMARK SMILES IDX 6 1 8 2 7 3 9 5 10 6 11 7 18 8 12 9 17 10 13 11 14 12 15 13
REMARK SMILES IDX 16 14 5 15 4 16 2 17 1 18 3 19 19 20 20 21 22 22 21 24
REMARK H PARENT 8 4 22 23 21 25
ROOT
ATOM      1  C   UNL     1      53.045  36.175  21.608  1.00  0.00     0.239 C 
ATOM      2  N   UNL     1      53.485  34.804  21.502  1.00  0.00    -0.325 N 
ATOM      3  O   UNL     1      52.136  36.591  20.972  1.00  0.00    -0.274 OA
ATOM      4  H   UNL     1      54.293  34.498  22.063  1.00  0.00     0.169 HD
ENDROOT
BRANCH   2   5
ATOM      5  C   UNL     1      52.834  33.843  20.636  1.00  0.00     0.041 A 
ATOM      6  C   UNL     1      53.603  33.241  19.659  1.00  0.00     0.027 A 
ATOM      7  C   UNL     1      53.046  32.311  18.807  1.00  0.00     0.015 A 
ATOM      8  C   UNL     1      51.493  33.507  20.774  1.00  0.00     0.027 A 
ATOM      9  C   UNL     1      51.713  31.978  18.933  1.00  0.00     0.056 A 
ATOM     10  C   UNL     1      50.933  32.572  19.913  1.00  0.00     0.015 A 
BRANCH   9  11
ATOM     11  C   UNL     1      51.117  30.942  17.987  1.00  0.00     0.416 C 
ATOM     12  F   UNL     1      52.105  30.123  17.531  1.00  0.00    -0.166 F 
ATOM     13  F   UNL     1      50.522  31.568  16.933  1.00  0.00    -0.166 F 
ATOM     14  F   UNL     1      50.167  30.225  18.658  1.00  0.00    -0.166 F 
ENDBRANCH   9  11
ENDBRANCH   2   5
BRANCH   1  15
ATOM     15  C   UNL     1      53.812  37.102  22.536  1.00  0.00     0.194 C 
BRANCH  15  16
ATOM     16  C   UNL     1      53.545  36.591  23.943  1.00  0.00     0.029 C 
BRANCH  16  17
ATOM     17  C   UNL     1      52.705  37.613  24.711  1.00  0.00    -0.016 C 
ATOM     18  C   UNL     1      53.669  38.473  25.524  1.00  0.00     0.007 C 
ATOM     19  C   UNL     1      51.696  36.978  25.667  1.00  0.00     0.007 C 
ENDBRANCH  16  17
ENDBRANCH  15  16
BRANCH  15  20
ATOM     20  P   UNL     1      55.616  37.079  22.144  1.00  0.00     0.337 P 
ATOM     21  O   UNL     1      56.454  36.917  23.317  1.00  0.00    -0.260 OA
BRANCH  20  22
ATOM     22  O   UNL     1      56.083  38.293  21.477  1.00  0.00    -0.324 OA
ATOM     23  H   UNL     1      56.803  38.064  20.839  1.00  0.00     0.221 HD
ENDBRANCH  20  22
BRANCH  20  24
ATOM     24  O   UNL     1      56.009  35.989  21.255  1.00  0.00    -0.324 OA
ATOM     25  H   UNL     1      55.198  35.553  20.890  1.00  0.00     0.221 HD
ENDBRANCH  20  24
ENDBRANCH  15  20
ENDBRANCH   1  15
TORSDOF 8
ENDMDL
MODEL 8
REMARK VINA RESULT:    -7.082      9.691     11.712
REMARK INTER + INTRA:         -10.925
REMARK INTER:                 -10.225
REMARK INTRA:                  -0.700
REMARK UNBOUND:                -0.944
REMARK SMILES CC(C)C[C@H](C(=O)Nc1ccc(C(F)(F)F)cc1)P(=O)(O)O
REMARK SMILES IDX 6 1 8 2 7 3 9 5 10 6 11 7 18 8 12 9 17 10 13 11 14 12 15 13
REMARK SMILES IDX 16 14 5 15 4 16 2 17 1 18 3 19 19 20 20 21 22 22 21 24
REMARK H PARENT 8 4 22 23 21 25
ROOT
ATOM      1  C   UNL     1      54.726  37.303  22.706  1.00  0.00     0.239 C 
ATOM      2  N   UNL     1      55.895  36.553  22.311  1.00  0.00    -0.325 N 
ATOM      3  O   UNL     1      54.721  38.487  22.732  1.00  0.00    -0.274 OA
ATOM      4  H   UNL     1      55.852  35.524  22.324  1.00  0.00     0.169 HD
ENDROOT
BRANCH   2   5
ATOM      5  C   UNL     1      57.126  37.194  21.898  1.00  0.00     0.041 A 
ATOM      6  C   UNL     1      58.265  36.921  22.632  1.00  0.00     0.027 A 
ATOM      7  C   UNL     1      59.471  37.492  22.288  1.00  0.00     0.015 A 
ATOM      8  C   UNL     1      57.192  38.039  20.798  1.00  0.00     0.027 A 
ATOM      9  C   UNL     1      59.543  38.339  21.201  1.00  0.00     0.056 A 
ATOM     10  C   UNL     1      58.408  38.617  20.454  1.00  0.00     0.015 A 
BRANCH   9  11
ATOM     11  C   UNL     1      60.887  38.955  20.830  1.00  0.00     0.416 C 
ATOM     12  F   UNL     1      61.867  38.397  21.592  1.00  0.00    -0.166 F 
ATOM     13  F   UNL     1      60.853  40.301  21.046  1.00  0.00    -0.166 F 
ATOM     14  F   UNL     1      61.123  38.736  19.502  1.00  0.00    -0.166 F 
ENDBRANCH   9  11
ENDBRANCH   2   5
BRANCH   1  15
ATOM     15  C   UNL     1      53.492  36.527  23.137  1.00  0.00     0.194 C 
BRANCH  15  16
ATOM     16  C   UNL     1      52.546  37.556  23.738  1.00  0.00     0.029 C 
BRANCH  16  17
ATOM     17  C   UNL     1      52.426  37.327  25.244  1.00  0.00    -0.016 C 
ATOM     18  C   UNL     1      52.574  38.686  25.923  1.00  0.00     0.007 C 
ATOM     19  C   UNL     1      53.492  36.385  25.806  1.00  0.00     0.007 C 
ENDBRANCH  16  17
ENDBRANCH  15  16
BRANCH  15  20
ATOM     20  P   UNL     1      52.720  35.666  21.697  1.00  0.00     0.337 P 
ATOM     21  O   UNL     1      53.349  35.993  20.432  1.00  0.00    -0.260 OA
BRANCH  20  22
ATOM     22  O   UNL     1      51.299  35.967  21.533  1.00  0.00    -0.324 OA
ATOM     23  H   UNL     1      50.860  35.229  21.042  1.00  0.00     0.221 HD
ENDBRANCH  20  22
BRANCH  20  24
ATOM     24  O   UNL     1      52.788  34.210  21.779  1.00  0.00    -0.324 OA
ATOM     25  H   UNL     1      52.513  33.918  22.684  1.00  0.00     0.221 HD
ENDBRANCH  20  24
ENDBRANCH  15  20
ENDBRANCH   1  15
TORSDOF 8
ENDMDL
MODEL 9
REMARK VINA RESULT:    -6.955      5.750      7.346
REMARK INTER + INTRA:         -10.746
REMARK INTER:                 -10.062
REMARK INTRA:                  -0.684
REMARK UNBOUND:                -0.944
REMARK SMILES CC(C)C[C@H](C(=O)Nc1ccc(C(F)(F)F)cc1)P(=O)(O)O
REMARK SMILES IDX 6 1 8 2 7 3 9 5 10 6 11 7 18 8 12 9 17 10 13 11 14 12 15 13
REMARK SMILES IDX 16 14 5 15 4 16 2 17 1 18 3 19 19 20 20 21 22 22 21 24
REMARK H PARENT 8 4 22 23 21 25
ROOT
ATOM      1  C   UNL     1      53.558  36.479  22.924  1.00  0.00     0.239 C 
ATOM      2  N   UNL     1      53.174  35.137  22.555  1.00  0.00    -0.325 N 
ATOM      3  O   UNL     1      53.715  37.331  22.115  1.00  0.00    -0.274 OA
ATOM      4  H   UNL     1      53.069  34.430  23.297  1.00  0.00     0.169 HD
ENDROOT
BRANCH   2   5
ATOM      5  C   UNL     1      52.930  34.749  21.182  1.00  0.00     0.041 A 
ATOM      6  C   UNL     1      54.011  34.312  20.441  1.00  0.00     0.027 A 
ATOM      7  C   UNL     1      53.846  33.921  19.129  1.00  0.00     0.015 A 
ATOM      8  C   UNL     1      51.663  34.785  20.612  1.00  0.00     0.027 A 
ATOM      9  C   UNL     1      52.592  33.961  18.554  1.00  0.00     0.056 A 
ATOM     10  C   UNL     1      51.499  34.393  19.290  1.00  0.00     0.015 A 
BRANCH   9  11
ATOM     11  C   UNL     1      52.428  33.516  17.106  1.00  0.00     0.416 C 
ATOM     12  F   UNL     1      53.047  32.317  16.927  1.00  0.00    -0.166 F 
ATOM     13  F   UNL     1      52.981  34.443  16.273  1.00  0.00    -0.166 F 
ATOM     14  F   UNL     1      51.095  33.420  16.821  1.00  0.00    -0.166 F 
ENDBRANCH   9  11
ENDBRANCH   2   5
BRANCH   1  15
ATOM     15  C   UNL     1      53.805  36.773  24.395  1.00  0.00     0.194 C 
BRANCH  15  16
ATOM     16  C   UNL     1      55.304  36.997  24.526  1.00  0.00     0.029 C 
BRANCH  16  17
ATOM     17  C   UNL     1      55.778  36.513  25.897  1.00  0.00    -0.016 C 
ATOM     18  C   UNL     1      56.894  35.499  25.659  1.00  0.00     0.007 C 
ATOM     19  C   UNL     1      54.680  35.843  26.722  1.00  0.00     0.007 C 
ENDBRANCH  16  17
ENDBRANCH  15  16
BRANCH  15  20
ATOM     20  P   UNL     1      52.854  38.260  24.937  1.00  0.00     0.337 P 
ATOM     21  O   UNL     1      51.776  37.946  25.856  1.00  0.00    -0.260 OA
BRANCH  20  22
ATOM     22  O   UNL     1      52.243  38.994  23.831  1.00  0.00    -0.324 OA
ATOM     23  H   UNL     1      52.749  39.829  23.668  1.00  0.00     0.221 HD
ENDBRANCH  20  22
BRANCH  20  24
ATOM     24  O   UNL     1      53.665  39.249  25.641  1.00  0.00    -0.324 OA
ATOM     25  H   UNL     1      53.996  38.861  26.490  1.00  0.00     0.221 HD
ENDBRANCH  20  24
ENDBRANCH  15  20
ENDBRANCH   1  15
TORSDOF 8
ENDMDL
MODEL 10
REMARK VINA RESULT:    -6.736      9.245     10.757
REMARK INTER + INTRA:         -10.437
REMARK INTER:                  -9.745
REMARK INTRA:                  -0.691
REMARK UNBOUND:                -0.944
REMARK SMILES CC(C)C[C@H](C(=O)Nc1ccc(C(F)(F)F)cc1)P(=O)(O)O
REMARK SMILES IDX 6 1 8 2 7 3 9 5 10 6 11 7 18 8 12 9 17 10 13 11 14 12 15 13
REMARK SMILES IDX 16 14 5 15 4 16 2 17 1 18 3 19 19 20 20 21 22 22 21 24
REMARK H PARENT 8 4 22 23 21 25
ROOT
ATOM      1  C   UNL     1      54.564  37.763  23.195  1.00  0.00     0.239 C 
ATOM      2  N   UNL     1      55.918  37.301  22.999  1.00  0.00    -0.325 N 
ATOM      3  O   UNL     1      53.901  38.158  22.296  1.00  0.00    -0.274 OA
ATOM      4  H   UNL     1      56.457  36.985  23.819  1.00  0.00     0.169 HD
ENDROOT
BRANCH   2   5
ATOM      5  C   UNL     1      56.546  37.263  21.695  1.00  0.00     0.041 A 
ATOM      6  C   UNL     1      57.283  38.365  21.310  1.00  0.00     0.027 A 
ATOM      7  C   UNL     1      57.913  38.391  20.084  1.00  0.00     0.015 A 
ATOM      8  C   UNL     1      56.442  36.164  20.851  1.00  0.00     0.027 A 
ATOM      9  C   UNL     1      57.808  37.306  19.237  1.00  0.00     0.056 A 
ATOM     10  C   UNL     1      57.074  36.192  19.615  1.00  0.00     0.015 A 
BRANCH   9  11
ATOM     11  C   UNL     1      58.518  37.349  17.889  1.00  0.00     0.416 C 
ATOM     12  F   UNL     1      57.802  36.634  16.977  1.00  0.00    -0.166 F 
ATOM     13  F   UNL     1      59.766  36.813  18.007  1.00  0.00    -0.166 F 
ATOM     14  F   UNL     1      58.641  38.650  17.494  1.00  0.00    -0.166 F 
ENDBRANCH   9  11
ENDBRANCH   2   5
BRANCH   1  15
ATOM     15  C   UNL     1      54.011  37.776  24.611  1.00  0.00     0.194 C 
BRANCH  15  16
ATOM     16  C   UNL     1      52.833  38.739  24.585  1.00  0.00     0.029 C 
BRANCH  16  17
ATOM     17  C   UNL     1      52.947  39.720  25.752  1.00  0.00    -0.016 C 
ATOM     18  C   UNL     1      54.120  39.265  26.616  1.00  0.00     0.007 C 
ATOM     19  C   UNL     1      51.694  39.778  26.626  1.00  0.00     0.007 C 
ENDBRANCH  16  17
ENDBRANCH  15  16
BRANCH  15  20
ATOM     20  P   UNL     1      53.482  36.083  25.124  1.00  0.00     0.337 P 
ATOM     21  O   UNL     1      54.336  35.502  26.143  1.00  0.00    -0.260 OA
BRANCH  20  22
ATOM     22  O   UNL     1      53.456  35.123  24.022  1.00  0.00    -0.324 OA
ATOM     23  H   UNL     1      53.961  35.487  23.254  1.00  0.00     0.221 HD
ENDBRANCH  20  22
BRANCH  20  24
ATOM     24  O   UNL     1      52.139  36.036  25.695  1.00  0.00    -0.324 OA
ATOM     25  H   UNL     1      51.679  35.214  25.389  1.00  0.00     0.221 HD
ENDBRANCH  20  24
ENDBRANCH  15  20
ENDBRANCH   1  15
TORSDOF 8
ENDMDL
MODEL 11
REMARK VINA RESULT:    -6.585      5.126      7.592
REMARK INTER + INTRA:         -10.224
REMARK INTER:                  -9.358
REMARK INTRA:                  -0.866
REMARK UNBOUND:                -0.944
REMARK SMILES CC(C)C[C@H](C(=O)Nc1ccc(C(F)(F)F)cc1)P(=O)(O)O
REMARK SMILES IDX 6 1 8 2 7 3 9 5 10 6 11 7 18 8 12 9 17 10 13 11 14 12 15 13
REMARK SMILES IDX 16 14 5 15 4 16 2 17 1 18 3 19 19 20 20 21 22 22 21 24
REMARK H PARENT 8 4 22 23 21 25
ROOT
ATOM      1  C   UNL     1      47.404  33.695  16.766  1.00  0.00     0.239 C 
ATOM      2  N   UNL     1      48.251  32.661  17.314  1.00  0.00    -0.325 N 
ATOM      3  O   UNL     1      47.620  34.845  16.950  1.00  0.00    -0.274 OA
ATOM      4  H   UNL     1      48.007  31.676  17.139  1.00  0.00     0.169 HD
ENDROOT
BRANCH   2   5
ATOM      5  C   UNL     1      49.431  32.959  18.099  1.00  0.00     0.041 A 
ATOM      6  C   UNL     1      50.597  33.243  17.415  1.00  0.00     0.027 A 
ATOM      7  C   UNL     1      51.754  33.542  18.102  1.00  0.00     0.015 A 
ATOM      8  C   UNL     1      49.414  32.982  19.488  1.00  0.00     0.027 A 
ATOM      9  C   UNL     1      51.746  33.560  19.482  1.00  0.00     0.056 A 
ATOM     10  C   UNL     1      50.581  33.281  20.179  1.00  0.00     0.015 A 
BRANCH   9  11
ATOM     11  C   UNL     1      53.033  33.901  20.225  1.00  0.00     0.416 C 
ATOM     12  F   UNL     1      53.676  32.750  20.568  1.00  0.00    -0.166 F 
ATOM     13  F   UNL     1      52.742  34.612  21.350  1.00  0.00    -0.166 F 
ATOM     14  F   UNL     1      53.820  34.672  19.417  1.00  0.00    -0.166 F 
ENDBRANCH   9  11
ENDBRANCH   2   5
BRANCH   1  15
ATOM     15  C   UNL     1      46.181  33.269  15.970  1.00  0.00     0.194 C 
BRANCH  15  16
ATOM     16  C   UNL     1      45.920  31.821  16.357  1.00  0.00     0.029 C 
BRANCH  16  17
ATOM     17  C   UNL     1      45.636  30.996  15.102  1.00  0.00    -0.016 C 
ATOM     18  C   UNL     1      46.261  31.736  13.921  1.00  0.00     0.007 C 
ATOM     19  C   UNL     1      44.145  30.805  14.821  1.00  0.00     0.007 C 
ENDBRANCH  16  17
ENDBRANCH  15  16
BRANCH  15  20
ATOM     20  P   UNL     1      44.732  34.341  16.367  1.00  0.00     0.337 P 
ATOM     21  O   UNL     1      44.054  34.846  15.188  1.00  0.00    -0.260 OA
BRANCH  20  22
ATOM     22  O   UNL     1      45.079  35.514  17.168  1.00  0.00    -0.324 OA
ATOM     23  H   UNL     1      44.832  35.354  18.112  1.00  0.00     0.221 HD
ENDBRANCH  20  22
BRANCH  20  24
ATOM     24  O   UNL     1      43.690  33.660  17.131  1.00  0.00    -0.324 OA
ATOM     25  H   UNL     1      43.189  34.323  17.668  1.00  0.00     0.221 HD
ENDBRANCH  20  24
ENDBRANCH  15  20
ENDBRANCH   1  15
TORSDOF 8
ENDMDL
MODEL 12
REMARK VINA RESULT:    -6.556      1.245      2.186
REMARK INTER + INTRA:         -10.183
REMARK INTER:                 -10.086
REMARK INTRA:                  -0.097
REMARK UNBOUND:                -0.944
REMARK SMILES CC(C)C[C@H](C(=O)Nc1ccc(C(F)(F)F)cc1)P(=O)(O)O
REMARK SMILES IDX 6 1 8 2 7 3 9 5 10 6 11 7 18 8 12 9 17 10 13 11 14 12 15 13
REMARK SMILES IDX 16 14 5 15 4 16 2 17 1 18 3 19 19 20 20 21 22 22 21 24
REMARK H PARENT 8 4 22 23 21 25
ROOT
ATOM      1  C   UNL     1      50.311  33.101  19.470  1.00  0.00     0.239 C 
ATOM      2  N   UNL     1      50.141  33.907  18.284  1.00  0.00    -0.325 N 
ATOM      3  O   UNL     1      49.556  32.234  19.752  1.00  0.00    -0.274 OA
ATOM      4  H   UNL     1      50.817  34.661  18.096  1.00  0.00     0.169 HD
ENDROOT
BRANCH   2   5
ATOM      5  C   UNL     1      49.057  33.693  17.349  1.00  0.00     0.041 A 
ATOM      6  C   UNL     1      49.237  32.733  16.372  1.00  0.00     0.027 A 
ATOM      7  C   UNL     1      48.241  32.475  15.455  1.00  0.00     0.015 A 
ATOM      8  C   UNL     1      47.863  34.400  17.420  1.00  0.00     0.027 A 
ATOM      9  C   UNL     1      47.055  33.178  15.514  1.00  0.00     0.056 A 
ATOM     10  C   UNL     1      46.862  34.141  16.493  1.00  0.00     0.015 A 
BRANCH   9  11
ATOM     11  C   UNL     1      45.962  32.873  14.497  1.00  0.00     0.416 C 
ATOM     12  F   UNL     1      44.824  33.538  14.841  1.00  0.00    -0.166 F 
ATOM     13  F   UNL     1      45.716  31.532  14.472  1.00  0.00    -0.166 F 
ATOM     14  F   UNL     1      46.391  33.257  13.258  1.00  0.00    -0.166 F 
ENDBRANCH   9  11
ENDBRANCH   2   5
BRANCH   1  15
ATOM     15  C   UNL     1      51.477  33.424  20.392  1.00  0.00     0.194 C 
BRANCH  15  16
ATOM     16  C   UNL     1      52.671  32.670  19.826  1.00  0.00     0.029 C 
BRANCH  16  17
ATOM     17  C   UNL     1      52.633  32.717  18.299  1.00  0.00    -0.016 C 
ATOM     18  C   UNL     1      52.793  31.285  17.796  1.00  0.00     0.007 C 
ATOM     19  C   UNL     1      53.741  33.573  17.686  1.00  0.00     0.007 C 
ENDBRANCH  16  17
ENDBRANCH  15  16
BRANCH  15  20
ATOM     20  P   UNL     1      51.793  35.242  20.440  1.00  0.00     0.337 P 
ATOM     21  O   UNL     1      51.129  35.909  21.544  1.00  0.00    -0.260 OA
BRANCH  20  22
ATOM     22  O   UNL     1      51.364  35.939  19.229  1.00  0.00    -0.324 OA
ATOM     23  H   UNL     1      50.393  36.126  19.282  1.00  0.00     0.221 HD
ENDBRANCH  20  22
BRANCH  20  24
ATOM     24  O   UNL     1      53.203  35.588  20.592  1.00  0.00    -0.324 OA
ATOM     25  H   UNL     1      53.736  34.761  20.701  1.00  0.00     0.221 HD
ENDBRANCH  20  24
ENDBRANCH  15  20
ENDBRANCH   1  15
TORSDOF 8
ENDMDL
MODEL 13
REMARK VINA RESULT:    -6.336      5.041      7.872
REMARK INTER + INTRA:          -9.873
REMARK INTER:                  -8.731
REMARK INTRA:                  -1.142
REMARK UNBOUND:                -0.944
REMARK SMILES CC(C)C[C@H](C(=O)Nc1ccc(C(F)(F)F)cc1)P(=O)(O)O
REMARK SMILES IDX 6 1 8 2 7 3 9 5 10 6 11 7 18 8 12 9 17 10 13 11 14 12 15 13
REMARK SMILES IDX 16 14 5 15 4 16 2 17 1 18 3 19 19 20 20 21 22 22 21 24
REMARK H PARENT 8 4 22 23 21 25
ROOT
ATOM      1  C   UNL     1      47.394  33.331  17.023  1.00  0.00     0.239 C 
ATOM      2  N   UNL     1      48.286  32.362  17.615  1.00  0.00    -0.325 N 
ATOM      3  O   UNL     1      47.596  34.496  17.098  1.00  0.00    -0.274 OA
ATOM      4  H   UNL     1      48.054  31.361  17.537  1.00  0.00     0.169 HD
ENDROOT
BRANCH   2   5
ATOM      5  C   UNL     1      49.495  32.744  18.314  1.00  0.00     0.041 A 
ATOM      6  C   UNL     1      50.624  32.977  17.554  1.00  0.00     0.027 A 
ATOM      7  C   UNL     1      51.807  33.352  18.156  1.00  0.00     0.015 A 
ATOM      8  C   UNL     1      49.540  32.896  19.694  1.00  0.00     0.027 A 
ATOM      9  C   UNL     1      51.861  33.497  19.527  1.00  0.00     0.056 A 
ATOM     10  C   UNL     1      50.733  33.270  20.300  1.00  0.00     0.015 A 
BRANCH   9  11
ATOM     11  C   UNL     1      53.175  33.920  20.174  1.00  0.00     0.416 C 
ATOM     12  F   UNL     1      52.914  34.666  21.284  1.00  0.00    -0.166 F 
ATOM     13  F   UNL     1      53.908  34.657  19.293  1.00  0.00    -0.166 F 
ATOM     14  F   UNL     1      53.887  32.801  20.501  1.00  0.00    -0.166 F 
ENDBRANCH   9  11
ENDBRANCH   2   5
BRANCH   1  15
ATOM     15  C   UNL     1      46.144  32.819  16.326  1.00  0.00     0.194 C 
BRANCH  15  16
ATOM     16  C   UNL     1      45.962  33.703  15.102  1.00  0.00     0.029 C 
BRANCH  16  17
ATOM     17  C   UNL     1      44.534  34.247  15.068  1.00  0.00    -0.016 C 
ATOM     18  C   UNL     1      43.949  34.075  16.467  1.00  0.00     0.007 C 
ATOM     19  C   UNL     1      43.628  33.524  14.071  1.00  0.00     0.007 C 
ENDBRANCH  16  17
ENDBRANCH  15  16
BRANCH  15  20
ATOM     20  P   UNL     1      46.336  31.045  15.851  1.00  0.00     0.337 P 
ATOM     21  O   UNL     1      47.547  30.782  15.098  1.00  0.00    -0.260 OA
BRANCH  20  22
ATOM     22  O   UNL     1      45.234  30.539  15.035  1.00  0.00    -0.324 OA
ATOM     23  H   UNL     1      44.503  30.226  15.624  1.00  0.00     0.221 HD
ENDBRANCH  20  22
BRANCH  20  24
ATOM     24  O   UNL     1      46.404  30.137  16.993  1.00  0.00    -0.324 OA
ATOM     25  H   UNL     1      45.609  30.269  17.567  1.00  0.00     0.221 HD
ENDBRANCH  20  24
ENDBRANCH  15  20
ENDBRANCH   1  15
TORSDOF 8
ENDMDL
MODEL 14
REMARK VINA RESULT:    -6.282      5.155      7.738
REMARK INTER + INTRA:          -9.797
REMARK INTER:                  -8.906
REMARK INTRA:                  -0.891
REMARK UNBOUND:                -0.944
REMARK SMILES CC(C)C[C@H](C(=O)Nc1ccc(C(F)(F)F)cc1)P(=O)(O)O
REMARK SMILES IDX 6 1 8 2 7 3 9 5 10 6 11 7 18 8 12 9 17 10 13 11 14 12 15 13
REMARK SMILES IDX 16 14 5 15 4 16 2 17 1 18 3 19 19 20 20 21 22 22 21 24
REMARK H PARENT 8 4 22 23 21 25
ROOT
ATOM      1  C   UNL     1      46.605  32.502  16.125  1.00  0.00     0.239 C 
ATOM      2  N   UNL     1      47.670  33.477  16.106  1.00  0.00    -0.325 N 
ATOM      3  O   UNL     1      46.730  31.449  16.652  1.00  0.00    -0.274 OA
ATOM      4  H   UNL     1      47.516  34.371  15.618  1.00  0.00     0.169 HD
ENDROOT
BRANCH   2   5
ATOM      5  C   UNL     1      48.947  33.246  16.749  1.00  0.00     0.041 A 
ATOM      6  C   UNL     1      49.177  33.879  17.956  1.00  0.00     0.027 A 
ATOM      7  C   UNL     1      50.368  33.696  18.624  1.00  0.00     0.015 A 
ATOM      8  C   UNL     1      49.913  32.410  16.206  1.00  0.00     0.027 A 
ATOM      9  C   UNL     1      51.336  32.873  18.086  1.00  0.00     0.056 A 
ATOM     10  C   UNL     1      51.115  32.229  16.879  1.00  0.00     0.015 A 
BRANCH   9  11
ATOM     11  C   UNL     1      52.644  32.676  18.843  1.00  0.00     0.416 C 
ATOM     12  F   UNL     1      53.502  33.689  18.538  1.00  0.00    -0.166 F 
ATOM     13  F   UNL     1      53.205  31.484  18.492  1.00  0.00    -0.166 F 
ATOM     14  F   UNL     1      52.381  32.652  20.183  1.00  0.00    -0.166 F 
ENDBRANCH   9  11
ENDBRANCH   2   5
BRANCH   1  15
ATOM     15  C   UNL     1      45.311  32.843  15.403  1.00  0.00     0.194 C 
BRANCH  15  16
ATOM     16  C   UNL     1      44.462  31.583  15.460  1.00  0.00     0.029 C 
BRANCH  16  17
ATOM     17  C   UNL     1      43.813  31.337  14.098  1.00  0.00    -0.016 C 
ATOM     18  C   UNL     1      43.995  29.858  13.769  1.00  0.00     0.007 C 
ATOM     19  C   UNL     1      44.429  32.165  12.970  1.00  0.00     0.007 C 
ENDBRANCH  16  17
ENDBRANCH  15  16
BRANCH  15  20
ATOM     20  P   UNL     1      44.460  34.265  16.217  1.00  0.00     0.337 P 
ATOM     21  O   UNL     1      43.639  35.038  15.306  1.00  0.00    -0.260 OA
BRANCH  20  22
ATOM     22  O   UNL     1      45.380  35.215  16.839  1.00  0.00    -0.324 OA
ATOM     23  H   UNL     1      45.974  35.600  16.148  1.00  0.00     0.221 HD
ENDBRANCH  20  22
BRANCH  20  24
ATOM     24  O   UNL     1      43.551  33.867  17.289  1.00  0.00    -0.324 OA
ATOM     25  H   UNL     1      43.994  33.196  17.866  1.00  0.00     0.221 HD
ENDBRANCH  20  24
ENDBRANCH  15  20
ENDBRANCH   1  15
TORSDOF 8
ENDMDL
MODEL 15
REMARK VINA RESULT:    -6.204      9.526     10.918
REMARK INTER + INTRA:          -9.688
REMARK INTER:                  -8.531
REMARK INTRA:                  -1.157
REMARK UNBOUND:                -0.944
REMARK SMILES CC(C)C[C@H](C(=O)Nc1ccc(C(F)(F)F)cc1)P(=O)(O)O
REMARK SMILES IDX 6 1 8 2 7 3 9 5 10 6 11 7 18 8 12 9 17 10 13 11 14 12 15 13
REMARK SMILES IDX 16 14 5 15 4 16 2 17 1 18 3 19 19 20 20 21 22 22 21 24
REMARK H PARENT 8 4 22 23 21 25
ROOT
ATOM      1  C   UNL     1      57.389  37.748  20.539  1.00  0.00     0.239 C 
ATOM      2  N   UNL     1      56.997  36.614  21.344  1.00  0.00    -0.325 N 
ATOM      3  O   UNL     1      57.087  38.856  20.829  1.00  0.00    -0.274 OA
ATOM      4  H   UNL     1      57.270  35.670  21.037  1.00  0.00     0.169 HD
ENDROOT
BRANCH   2   5
ATOM      5  C   UNL     1      56.234  36.756  22.566  1.00  0.00     0.041 A 
ATOM      6  C   UNL     1      56.900  36.554  23.760  1.00  0.00     0.027 A 
ATOM      7  C   UNL     1      56.234  36.681  24.961  1.00  0.00     0.015 A 
ATOM      8  C   UNL     1      54.889  37.100  22.568  1.00  0.00     0.027 A 
ATOM      9  C   UNL     1      54.895  37.014  24.970  1.00  0.00     0.056 A 
ATOM     10  C   UNL     1      54.218  37.224  23.778  1.00  0.00     0.015 A 
BRANCH   9  11
ATOM     11  C   UNL     1      54.178  37.158  26.307  1.00  0.00     0.416 C 
ATOM     12  F   UNL     1      54.548  36.140  27.132  1.00  0.00    -0.166 F 
ATOM     13  F   UNL     1      52.829  37.119  26.113  1.00  0.00    -0.166 F 
ATOM     14  F   UNL     1      54.501  38.367  26.855  1.00  0.00    -0.166 F 
ENDBRANCH   9  11
ENDBRANCH   2   5
BRANCH   1  15
ATOM     15  C   UNL     1      58.175  37.482  19.266  1.00  0.00     0.194 C 
BRANCH  15  16
ATOM     16  C   UNL     1      59.599  37.931  19.558  1.00  0.00     0.029 C 
BRANCH  16  17
ATOM     17  C   UNL     1      59.968  39.098  18.643  1.00  0.00    -0.016 C 
ATOM     18  C   UNL     1      60.026  40.354  19.509  1.00  0.00     0.007 C 
ATOM     19  C   UNL     1      58.963  39.333  17.516  1.00  0.00     0.007 C 
ENDBRANCH  16  17
ENDBRANCH  15  16
BRANCH  15  20
ATOM     20  P   UNL     1      58.115  35.692  18.817  1.00  0.00     0.337 P 
ATOM     21  O   UNL     1      58.819  35.386  17.587  1.00  0.00    -0.260 OA
BRANCH  20  22
ATOM     22  O   UNL     1      56.756  35.182  18.644  1.00  0.00    -0.324 OA
ATOM     23  H   UNL     1      56.788  34.208  18.468  1.00  0.00     0.221 HD
ENDBRANCH  20  22
BRANCH  20  24
ATOM     24  O   UNL     1      58.719  34.816  19.817  1.00  0.00    -0.324 OA
ATOM     25  H   UNL     1      59.199  34.079  19.363  1.00  0.00     0.221 HD
ENDBRANCH  20  24
ENDBRANCH  15  20
ENDBRANCH   1  15
TORSDOF 8
ENDMDL
MODEL 16
REMARK VINA RESULT:    -6.173      9.728     11.365
REMARK INTER + INTRA:          -9.643
REMARK INTER:                  -8.849
REMARK INTRA:                  -0.794
REMARK UNBOUND:                -0.944
REMARK SMILES CC(C)C[C@H](C(=O)Nc1ccc(C(F)(F)F)cc1)P(=O)(O)O
REMARK SMILES IDX 6 1 8 2 7 3 9 5 10 6 11 7 18 8 12 9 17 10 13 11 14 12 15 13
REMARK SMILES IDX 16 14 5 15 4 16 2 17 1 18 3 19 19 20 20 21 22 22 21 24
REMARK H PARENT 8 4 22 23 21 25
ROOT
ATOM      1  C   UNL     1      55.582  37.496  22.056  1.00  0.00     0.239 C 
ATOM      2  N   UNL     1      56.881  36.984  21.689  1.00  0.00    -0.325 N 
ATOM      3  O   UNL     1      55.143  38.489  21.581  1.00  0.00    -0.274 OA
ATOM      4  H   UNL     1      57.223  36.127  22.147  1.00  0.00     0.169 HD
ENDROOT
BRANCH   2   5
ATOM      5  C   UNL     1      57.720  37.630  20.702  1.00  0.00     0.041 A 
ATOM      6  C   UNL     1      57.801  37.045  19.453  1.00  0.00     0.027 A 
ATOM      7  C   UNL     1      58.576  37.613  18.465  1.00  0.00     0.015 A 
ATOM      8  C   UNL     1      58.414  38.803  20.968  1.00  0.00     0.027 A 
ATOM      9  C   UNL     1      59.274  38.774  18.724  1.00  0.00     0.056 A 
ATOM     10  C   UNL     1      59.198  39.372  19.972  1.00  0.00     0.015 A 
BRANCH   9  11
ATOM     11  C   UNL     1      60.120  39.392  17.617  1.00  0.00     0.416 C 
ATOM     12  F   UNL     1      60.897  38.429  17.049  1.00  0.00    -0.166 F 
ATOM     13  F   UNL     1      60.915  40.371  18.135  1.00  0.00    -0.166 F 
ATOM     14  F   UNL     1      59.291  39.955  16.688  1.00  0.00    -0.166 F 
ENDBRANCH   9  11
ENDBRANCH   2   5
BRANCH   1  15
ATOM     15  C   UNL     1      54.791  36.747  23.117  1.00  0.00     0.194 C 
BRANCH  15  16
ATOM     16  C   UNL     1      54.959  37.548  24.399  1.00  0.00     0.029 C 
BRANCH  16  17
ATOM     17  C   UNL     1      55.294  36.605  25.555  1.00  0.00    -0.016 C 
ATOM     18  C   UNL     1      55.377  37.452  26.822  1.00  0.00     0.007 C 
ATOM     19  C   UNL     1      56.621  35.867  25.376  1.00  0.00     0.007 C 
ENDBRANCH  16  17
ENDBRANCH  15  16
BRANCH  15  20
ATOM     20  P   UNL     1      53.014  36.610  22.638  1.00  0.00     0.337 P 
ATOM     21  O   UNL     1      52.104  36.984  23.703  1.00  0.00    -0.260 OA
BRANCH  20  22
ATOM     22  O   UNL     1      52.625  35.262  22.227  1.00  0.00    -0.324 OA
ATOM     23  H   UNL     1      53.213  34.600  22.667  1.00  0.00     0.221 HD
ENDBRANCH  20  22
BRANCH  20  24
ATOM     24  O   UNL     1      52.642  37.466  21.515  1.00  0.00    -0.324 OA
ATOM     25  H   UNL     1      52.981  37.072  20.673  1.00  0.00     0.221 HD
ENDBRANCH  20  24
ENDBRANCH  15  20
ENDBRANCH   1  15
TORSDOF 8
ENDMDL
MODEL 17
REMARK VINA RESULT:    -6.114      5.607      7.737
REMARK INTER + INTRA:          -9.560
REMARK INTER:                  -8.481
REMARK INTRA:                  -1.079
REMARK UNBOUND:                -0.944
REMARK SMILES CC(C)C[C@H](C(=O)Nc1ccc(C(F)(F)F)cc1)P(=O)(O)O
REMARK SMILES IDX 6 1 8 2 7 3 9 5 10 6 11 7 18 8 12 9 17 10 13 11 14 12 15 13
REMARK SMILES IDX 16 14 5 15 4 16 2 17 1 18 3 19 19 20 20 21 22 22 21 24
REMARK H PARENT 8 4 22 23 21 25
ROOT
ATOM      1  C   UNL     1      50.366  31.343  17.571  1.00  0.00     0.239 C 
ATOM      2  N   UNL     1      50.329  29.959  17.162  1.00  0.00    -0.325 N 
ATOM      3  O   UNL     1      50.928  31.690  18.554  1.00  0.00    -0.274 OA
ATOM      4  H   UNL     1      49.809  29.708  16.308  1.00  0.00     0.169 HD
ENDROOT
BRANCH   2   5
ATOM      5  C   UNL     1      50.995  28.910  17.905  1.00  0.00     0.041 A 
ATOM      6  C   UNL     1      50.272  28.271  18.893  1.00  0.00     0.027 A 
ATOM      7  C   UNL     1      50.844  27.258  19.633  1.00  0.00     0.015 A 
ATOM      8  C   UNL     1      52.304  28.529  17.642  1.00  0.00     0.027 A 
ATOM      9  C   UNL     1      52.147  26.879  19.383  1.00  0.00     0.056 A 
ATOM     10  C   UNL     1      52.881  27.511  18.391  1.00  0.00     0.015 A 
BRANCH   9  11
ATOM     11  C   UNL     1      52.761  25.752  20.205  1.00  0.00     0.416 C 
ATOM     12  F   UNL     1      52.606  24.572  19.543  1.00  0.00    -0.166 F 
ATOM     13  F   UNL     1      52.144  25.678  21.419  1.00  0.00    -0.166 F 
ATOM     14  F   UNL     1      54.084  26.023  20.409  1.00  0.00    -0.166 F 
ENDBRANCH   9  11
ENDBRANCH   2   5
BRANCH   1  15
ATOM     15  C   UNL     1      49.617  32.359  16.724  1.00  0.00     0.194 C 
BRANCH  15  16
ATOM     16  C   UNL     1      48.604  31.559  15.919  1.00  0.00     0.029 C 
BRANCH  16  17
ATOM     17  C   UNL     1      48.531  32.108  14.494  1.00  0.00    -0.016 C 
ATOM     18  C   UNL     1      47.075  32.483  14.226  1.00  0.00     0.007 C 
ATOM     19  C   UNL     1      48.978  31.106  13.430  1.00  0.00     0.007 C 
ENDBRANCH  16  17
ENDBRANCH  15  16
BRANCH  15  20
ATOM     20  P   UNL     1      48.785  33.618  17.789  1.00  0.00     0.337 P 
ATOM     21  O   UNL     1      47.804  34.412  17.075  1.00  0.00    -0.260 OA
BRANCH  20  22
ATOM     22  O   UNL     1      49.713  34.570  18.396  1.00  0.00    -0.324 OA
ATOM     23  H   UNL     1      50.619  34.435  18.020  1.00  0.00     0.221 HD
ENDBRANCH  20  22
BRANCH  20  24
ATOM     24  O   UNL     1      48.051  33.042  18.912  1.00  0.00    -0.324 OA
ATOM     25  H   UNL     1      48.084  33.664  19.681  1.00  0.00     0.221 HD
ENDBRANCH  20  24
ENDBRANCH  15  20
ENDBRANCH   1  15
TORSDOF 8
ENDMDL
MODEL 18
REMARK VINA RESULT:    -6.009      5.387      7.840
REMARK INTER + INTRA:          -9.413
REMARK INTER:                  -8.315
REMARK INTRA:                  -1.097
REMARK UNBOUND:                -0.944
REMARK SMILES CC(C)C[C@H](C(=O)Nc1ccc(C(F)(F)F)cc1)P(=O)(O)O
REMARK SMILES IDX 6 1 8 2 7 3 9 5 10 6 11 7 18 8 12 9 17 10 13 11 14 12 15 13
REMARK SMILES IDX 16 14 5 15 4 16 2 17 1 18 3 19 19 20 20 21 22 22 21 24
REMARK H PARENT 8 4 22 23 21 25
ROOT
ATOM      1  C   UNL     1      46.447  33.388  15.422  1.00  0.00     0.239 C 
ATOM      2  N   UNL     1      47.204  32.351  16.084  1.00  0.00    -0.325 N 
ATOM      3  O   UNL     1      46.656  34.537  15.618  1.00  0.00    -0.274 OA
ATOM      4  H   UNL     1      46.969  31.367  15.893  1.00  0.00     0.169 HD
ENDROOT
BRANCH   2   5
ATOM      5  C   UNL     1      48.282  32.644  17.006  1.00  0.00     0.041 A 
ATOM      6  C   UNL     1      47.952  32.826  18.335  1.00  0.00     0.027 A 
ATOM      7  C   UNL     1      48.931  33.100  19.266  1.00  0.00     0.015 A 
ATOM      8  C   UNL     1      49.607  32.726  16.599  1.00  0.00     0.027 A 
ATOM      9  C   UNL     1      50.249  33.190  18.868  1.00  0.00     0.056 A 
ATOM     10  C   UNL     1      50.592  33.005  17.537  1.00  0.00     0.015 A 
BRANCH   9  11
ATOM     11  C   UNL     1      51.320  33.486  19.912  1.00  0.00     0.416 C 
ATOM     12  F   UNL     1      52.409  32.703  19.678  1.00  0.00    -0.166 F 
ATOM     13  F   UNL     1      50.832  33.227  21.158  1.00  0.00    -0.166 F 
ATOM     14  F   UNL     1      51.651  34.809  19.843  1.00  0.00    -0.166 F 
ENDBRANCH   9  11
ENDBRANCH   2   5
BRANCH   1  15
ATOM     15  C   UNL     1      45.326  32.966  14.486  1.00  0.00     0.194 C 
BRANCH  15  16
ATOM     16  C   UNL     1      44.428  32.049  15.303  1.00  0.00     0.029 C 
BRANCH  16  17
ATOM     17  C   UNL     1      44.198  30.744  14.542  1.00  0.00    -0.016 C 
ATOM     18  C   UNL     1      44.221  29.611  15.565  1.00  0.00     0.007 C 
ATOM     19  C   UNL     1      45.260  30.460  13.480  1.00  0.00     0.007 C 
ENDBRANCH  16  17
ENDBRANCH  15  16
BRANCH  15  20
ATOM     20  P   UNL     1      44.398  34.438  13.868  1.00  0.00     0.337 P 
ATOM     21  O   UNL     1      43.521  34.134  12.753  1.00  0.00    -0.260 OA
BRANCH  20  22
ATOM     22  O   UNL     1      45.265  35.525  13.418  1.00  0.00    -0.324 OA
ATOM     23  H   UNL     1      44.873  35.949  12.614  1.00  0.00     0.221 HD
ENDBRANCH  20  22
BRANCH  20  24
ATOM     24  O   UNL     1      43.526  35.044  14.870  1.00  0.00    -0.324 OA
ATOM     25  H   UNL     1      42.626  35.184  14.483  1.00  0.00     0.221 HD
ENDBRANCH  20  24
ENDBRANCH  15  20
ENDBRANCH   1  15
TORSDOF 8
ENDMDL
MODEL 19
REMARK VINA RESULT:    -6.008      1.113      1.804
REMARK INTER + INTRA:          -9.411
REMARK INTER:                  -8.533
REMARK INTRA:                  -0.877
REMARK UNBOUND:                -0.944
REMARK SMILES CC(C)C[C@H](C(=O)Nc1ccc(C(F)(F)F)cc1)P(=O)(O)O
REMARK SMILES IDX 6 1 8 2 7 3 9 5 10 6 11 7 18 8 12 9 17 10 13 11 14 12 15 13
REMARK SMILES IDX 16 14 5 15 4 16 2 17 1 18 3 19 19 20 20 21 22 22 21 24
REMARK H PARENT 8 4 22 23 21 25
ROOT
ATOM      1  C   UNL     1      50.814  32.383  18.671  1.00  0.00     0.239 C 
ATOM      2  N   UNL     1      50.390  33.015  17.444  1.00  0.00    -0.325 N 
ATOM      3  O   UNL     1      50.037  31.980  19.469  1.00  0.00    -0.274 OA
ATOM      4  H   UNL     1      51.107  33.365  16.792  1.00  0.00     0.169 HD
ENDROOT
BRANCH   2   5
ATOM      5  C   UNL     1      48.994  33.175  17.095  1.00  0.00     0.041 A 
ATOM      6  C   UNL     1      48.392  32.153  16.386  1.00  0.00     0.027 A 
ATOM      7  C   UNL     1      47.064  32.239  16.028  1.00  0.00     0.015 A 
ATOM      8  C   UNL     1      48.259  34.295  17.462  1.00  0.00     0.027 A 
ATOM      9  C   UNL     1      46.329  33.352  16.384  1.00  0.00     0.056 A 
ATOM     10  C   UNL     1      46.921  34.381  17.099  1.00  0.00     0.015 A 
BRANCH   9  11
ATOM     11  C   UNL     1      44.859  33.426  15.987  1.00  0.00     0.416 C 
ATOM     12  F   UNL     1      44.372  32.165  15.818  1.00  0.00    -0.166 F 
ATOM     13  F   UNL     1      44.730  34.123  14.823  1.00  0.00    -0.166 F 
ATOM     14  F   UNL     1      44.169  34.084  16.965  1.00  0.00    -0.166 F 
ENDBRANCH   9  11
ENDBRANCH   2   5
BRANCH   1  15
ATOM     15  C   UNL     1      52.306  32.282  18.944  1.00  0.00     0.194 C 
BRANCH  15  16
ATOM     16  C   UNL     1      52.946  31.923  17.611  1.00  0.00     0.029 C 
BRANCH  16  17
ATOM     17  C   UNL     1      53.669  30.581  17.733  1.00  0.00    -0.016 C 
ATOM     18  C   UNL     1      54.759  30.554  16.665  1.00  0.00     0.007 C 
ATOM     19  C   UNL     1      52.755  29.374  17.525  1.00  0.00     0.007 C 
ENDBRANCH  16  17
ENDBRANCH  15  16
BRANCH  15  20
ATOM     20  P   UNL     1      52.965  33.879  19.596  1.00  0.00     0.337 P 
ATOM     21  O   UNL     1      51.987  34.950  19.579  1.00  0.00    -0.260 OA
BRANCH  20  22
ATOM     22  O   UNL     1      54.123  34.376  18.855  1.00  0.00    -0.324 OA
ATOM     23  H   UNL     1      54.366  33.728  18.148  1.00  0.00     0.221 HD
ENDBRANCH  20  22
BRANCH  20  24
ATOM     24  O   UNL     1      53.411  33.806  20.984  1.00  0.00    -0.324 OA
ATOM     25  H   UNL     1      52.661  34.046  21.584  1.00  0.00     0.221 HD
ENDBRANCH  20  24
ENDBRANCH  15  20
ENDBRANCH   1  15
TORSDOF 8
ENDMDL
MODEL 20
REMARK VINA RESULT:    -5.969      5.178      7.220
REMARK INTER + INTRA:          -9.356
REMARK INTER:                  -8.452
REMARK INTRA:                  -0.904
REMARK UNBOUND:                -0.944
REMARK SMILES CC(C)C[C@H](C(=O)Nc1ccc(C(F)(F)F)cc1)P(=O)(O)O
REMARK SMILES IDX 6 1 8 2 7 3 9 5 10 6 11 7 18 8 12 9 17 10 13 11 14 12 15 13
REMARK SMILES IDX 16 14 5 15 4 16 2 17 1 18 3 19 19 20 20 21 22 22 21 24
REMARK H PARENT 8 4 22 23 21 25
ROOT
ATOM      1  C   UNL     1      50.376  31.548  17.501  1.00  0.00     0.239 C 
ATOM      2  N   UNL     1      50.634  30.759  18.682  1.00  0.00    -0.325 N 
ATOM      3  O   UNL     1      50.501  31.102  16.411  1.00  0.00    -0.274 OA
ATOM      4  H   UNL     1      50.528  31.200  19.607  1.00  0.00     0.169 HD
ENDROOT
BRANCH   2   5
ATOM      5  C   UNL     1      51.036  29.369  18.616  1.00  0.00     0.041 A 
ATOM      6  C   UNL     1      50.235  28.442  19.254  1.00  0.00     0.027 A 
ATOM      7  C   UNL     1      50.557  27.102  19.223  1.00  0.00     0.015 A 
ATOM      8  C   UNL     1      52.169  28.955  17.927  1.00  0.00     0.027 A 
ATOM      9  C   UNL     1      51.685  26.684  18.548  1.00  0.00     0.056 A 
ATOM     10  C   UNL     1      52.494  27.604  17.900  1.00  0.00     0.015 A 
BRANCH   9  11
ATOM     11  C   UNL     1      52.021  25.197  18.517  1.00  0.00     0.416 C 
ATOM     12  F   UNL     1      52.876  24.947  17.487  1.00  0.00    -0.166 F 
ATOM     13  F   UNL     1      50.880  24.470  18.349  1.00  0.00    -0.166 F 
ATOM     14  F   UNL     1      52.585  24.846  19.711  1.00  0.00    -0.166 F 
ENDBRANCH   9  11
ENDBRANCH   2   5
BRANCH   1  15
ATOM     15  C   UNL     1      49.974  33.002  17.687  1.00  0.00     0.194 C 
BRANCH  15  16
ATOM     16  C   UNL     1      48.453  33.016  17.674  1.00  0.00     0.029 C 
BRANCH  16  17
ATOM     17  C   UNL     1      47.956  33.641  16.370  1.00  0.00    -0.016 C 
ATOM     18  C   UNL     1      46.900  34.680  16.739  1.00  0.00     0.007 C 
ATOM     19  C   UNL     1      47.330  32.632  15.408  1.00  0.00     0.007 C 
ENDBRANCH  16  17
ENDBRANCH  15  16
BRANCH  15  20
ATOM     20  P   UNL     1      50.637  33.669  19.276  1.00  0.00     0.337 P 
ATOM     21  O   UNL     1      50.630  35.118  19.336  1.00  0.00    -0.260 OA
BRANCH  20  22
ATOM     22  O   UNL     1      52.014  33.259  19.549  1.00  0.00    -0.324 OA
ATOM     23  H   UNL     1      52.401  32.841  18.740  1.00  0.00     0.221 HD
ENDBRANCH  20  22
BRANCH  20  24
ATOM     24  O   UNL     1      49.880  33.245  20.451  1.00  0.00    -0.324 OA
ATOM     25  H   UNL     1      48.924  33.158  20.213  1.00  0.00     0.221 HD
ENDBRANCH  20  24
ENDBRANCH  15  20
ENDBRANCH   1  15
TORSDOF 8
ENDMDL
