MODEL 1
REMARK VINA RESULT:    -7.690      0.000      0.000
REMARK INTER + INTRA:         -11.780
REMARK INTER:                 -10.837
REMARK INTRA:                  -0.943
REMARK UNBOUND:                -0.943
REMARK SMILES CC(C)C[C@H](C(=O)Nc1ccc(C(F)(F)F)cc1)P(=O)(O)O
REMARK SMILES IDX 6 1 8 2 7 3 9 5 10 6 11 7 18 8 12 9 17 10 13 11 14 12 15 13
REMARK SMILES IDX 16 14 5 15 4 16 2 17 1 18 3 19 19 20 20 21 22 22 21 24
REMARK H PARENT 8 4 22 23 21 25
ROOT
ATOM      1  C   UNL     1      50.029  33.069  19.192  1.00  0.00     0.239 C 
ATOM      2  N   UNL     1      49.722  33.284  17.798  1.00  0.00    -0.325 N 
ATOM      3  O   UNL     1      49.183  32.869  19.996  1.00  0.00    -0.274 OA
ATOM      4  H   UNL     1      50.494  33.473  17.143  1.00  0.00     0.169 HD
ENDROOT
BRANCH   2   5
ATOM      5  C   UNL     1      48.368  33.244  17.285  1.00  0.00     0.041 A 
ATOM      6  C   UNL     1      47.689  34.442  17.181  1.00  0.00     0.027 A 
ATOM      7  C   UNL     1      46.400  34.474  16.694  1.00  0.00     0.015 A 
ATOM      8  C   UNL     1      47.758  32.061  16.888  1.00  0.00     0.027 A 
ATOM      9  C   UNL     1      45.785  33.302  16.305  1.00  0.00     0.056 A 
ATOM     10  C   UNL     1      46.458  32.094  16.400  1.00  0.00     0.015 A 
BRANCH   9  11
ATOM     11  C   UNL     1      44.362  33.358  15.761  1.00  0.00     0.416 C 
ATOM     12  F   UNL     1      43.865  32.094  15.662  1.00  0.00    -0.166 F 
ATOM     13  F   UNL     1      44.361  33.945  14.531  1.00  0.00    -0.166 F 
ATOM     14  F   UNL     1      43.596  34.115  16.601  1.00  0.00    -0.166 F 
ENDBRANCH   9  11
ENDBRANCH   2   5
BRANCH   1  15
ATOM     15  C   UNL     1      51.485  33.151  19.623  1.00  0.00     0.194 C 
BRANCH  15  16
ATOM     16  C   UNL     1      52.301  33.049  18.343  1.00  0.00     0.029 C 
BRANCH  16  17
ATOM     17  C   UNL     1      53.487  32.110  18.563  1.00  0.00    -0.016 C 
ATOM     18  C   UNL     1      54.747  32.971  18.592  1.00  0.00     0.007 C 
ATOM     19  C   UNL     1      53.644  31.057  17.467  1.00  0.00     0.007 C 
ENDBRANCH  16  17
ENDBRANCH  15  16
BRANCH  15  20
ATOM     20  P   UNL     1      51.820  34.735  20.509  1.00  0.00     0.337 P 
ATOM     21  O   UNL     1      52.205  35.816  19.621  1.00  0.00    -0.260 OA
BRANCH  20  22
ATOM     22  O   UNL     1      52.885  34.631  21.505  1.00  0.00    -0.324 OA
ATOM     23  H   UNL     1      53.704  34.277  21.077  1.00  0.00     0.221 HD
ENDBRANCH  20  22
BRANCH  20  24
ATOM     24  O   UNL     1      50.669  35.251  21.244  1.00  0.00    -0.324 OA
ATOM     25  H   UNL     1      50.228  34.509  21.729  1.00  0.00     0.221 HD
ENDBRANCH  20  24
ENDBRANCH  15  20
ENDBRANCH   1  15
TORSDOF 8
ENDMDL
MODEL 2
REMARK VINA RESULT:    -7.670      6.095      7.857
REMARK INTER + INTRA:         -11.751
REMARK INTER:                 -10.946
REMARK INTRA:                  -0.806
REMARK UNBOUND:                -0.943
REMARK SMILES CC(C)C[C@H](C(=O)Nc1ccc(C(F)(F)F)cc1)P(=O)(O)O
REMARK SMILES IDX 6 1 8 2 7 3 9 5 10 6 11 7 18 8 12 9 17 10 13 11 14 12 15 13
REMARK SMILES IDX 16 14 5 15 4 16 2 17 1 18 3 19 19 20 20 21 22 22 21 24
REMARK H PARENT 8 4 22 23 21 25
ROOT
ATOM      1  C   UNL     1      53.428  37.309  23.122  1.00  0.00     0.239 C 
ATOM      2  N   UNL     1      53.598  35.913  22.793  1.00  0.00    -0.325 N 
ATOM      3  O   UNL     1      52.871  38.061  22.395  1.00  0.00    -0.274 OA
ATOM      4  H   UNL     1      54.107  35.307  23.452  1.00  0.00     0.169 HD
ENDROOT
BRANCH   2   5
ATOM      5  C   UNL     1      53.079  35.334  21.571  1.00  0.00     0.041 A 
ATOM      6  C   UNL     1      53.994  34.918  20.624  1.00  0.00     0.027 A 
ATOM      7  C   UNL     1      53.567  34.351  19.442  1.00  0.00     0.015 A 
ATOM      8  C   UNL     1      51.718  35.175  21.343  1.00  0.00     0.027 A 
ATOM      9  C   UNL     1      52.217  34.196  19.205  1.00  0.00     0.056 A 
ATOM     10  C   UNL     1      51.289  34.606  20.150  1.00  0.00     0.015 A 
BRANCH   9  11
ATOM     11  C   UNL     1      51.763  33.560  17.896  1.00  0.00     0.416 C 
ATOM     12  F   UNL     1      50.464  33.892  17.657  1.00  0.00    -0.166 F 
ATOM     13  F   UNL     1      51.879  32.204  17.978  1.00  0.00    -0.166 F 
ATOM     14  F   UNL     1      52.569  34.002  16.886  1.00  0.00    -0.166 F 
ENDBRANCH   9  11
ENDBRANCH   2   5
BRANCH   1  15
ATOM     15  C   UNL     1      54.028  37.814  24.424  1.00  0.00     0.194 C 
BRANCH  15  16
ATOM     16  C   UNL     1      52.852  38.022  25.367  1.00  0.00     0.029 C 
BRANCH  16  17
ATOM     17  C   UNL     1      52.840  39.468  25.862  1.00  0.00    -0.016 C 
ATOM     18  C   UNL     1      54.018  39.630  26.820  1.00  0.00     0.007 C 
ATOM     19  C   UNL     1      51.557  39.849  26.602  1.00  0.00     0.007 C 
ENDBRANCH  16  17
ENDBRANCH  15  16
BRANCH  15  20
ATOM     20  P   UNL     1      55.231  36.593  25.110  1.00  0.00     0.337 P 
ATOM     21  O   UNL     1      55.890  37.056  26.317  1.00  0.00    -0.260 OA
BRANCH  20  22
ATOM     22  O   UNL     1      56.299  36.241  24.176  1.00  0.00    -0.324 OA
ATOM     23  H   UNL     1      57.003  35.736  24.654  1.00  0.00     0.221 HD
ENDBRANCH  20  22
BRANCH  20  24
ATOM     24  O   UNL     1      54.625  35.319  25.484  1.00  0.00    -0.324 OA
ATOM     25  H   UNL     1      55.197  34.576  25.168  1.00  0.00     0.221 HD
ENDBRANCH  20  24
ENDBRANCH  15  20
ENDBRANCH   1  15
TORSDOF 8
ENDMDL
MODEL 3
REMARK VINA RESULT:    -7.653      0.234      1.280
REMARK INTER + INTRA:         -11.728
REMARK INTER:                 -10.789
REMARK INTRA:                  -0.938
REMARK UNBOUND:                -0.943
REMARK SMILES CC(C)C[C@H](C(=O)Nc1ccc(C(F)(F)F)cc1)P(=O)(O)O
REMARK SMILES IDX 6 1 8 2 7 3 9 5 10 6 11 7 18 8 12 9 17 10 13 11 14 12 15 13
REMARK SMILES IDX 16 14 5 15 4 16 2 17 1 18 3 19 19 20 20 21 22 22 21 24
REMARK H PARENT 8 4 22 23 21 25
ROOT
ATOM      1  C   UNL     1      49.990  33.099  19.186  1.00  0.00     0.239 C 
ATOM      2  N   UNL     1      49.699  33.359  17.796  1.00  0.00    -0.325 N 
ATOM      3  O   UNL     1      49.133  32.883  19.975  1.00  0.00    -0.274 OA
ATOM      4  H   UNL     1      50.480  33.560  17.155  1.00  0.00     0.169 HD
ENDROOT
BRANCH   2   5
ATOM      5  C   UNL     1      48.350  33.348  17.268  1.00  0.00     0.041 A 
ATOM      6  C   UNL     1      47.822  32.128  16.894  1.00  0.00     0.027 A 
ATOM      7  C   UNL     1      46.541  32.046  16.391  1.00  0.00     0.015 A 
ATOM      8  C   UNL     1      47.588  34.503  17.151  1.00  0.00     0.027 A 
ATOM      9  C   UNL     1      45.780  33.190  16.264  1.00  0.00     0.056 A 
ATOM     10  C   UNL     1      46.298  34.420  16.641  1.00  0.00     0.015 A 
BRANCH   9  11
ATOM     11  C   UNL     1      44.363  33.080  15.715  1.00  0.00     0.416 C 
ATOM     12  F   UNL     1      44.384  33.270  14.366  1.00  0.00    -0.166 F 
ATOM     13  F   UNL     1      43.568  34.023  16.294  1.00  0.00    -0.166 F 
ATOM     14  F   UNL     1      43.864  31.846  16.021  1.00  0.00    -0.166 F 
ENDBRANCH   9  11
ENDBRANCH   2   5
BRANCH   1  15
ATOM     15  C   UNL     1      51.441  33.152  19.634  1.00  0.00     0.194 C 
BRANCH  15  16
ATOM     16  C   UNL     1      52.270  33.049  18.363  1.00  0.00     0.029 C 
BRANCH  16  17
ATOM     17  C   UNL     1      53.560  32.281  18.651  1.00  0.00    -0.016 C 
ATOM     18  C   UNL     1      54.723  33.239  18.406  1.00  0.00     0.007 C 
ATOM     19  C   UNL     1      53.750  31.050  17.763  1.00  0.00     0.007 C 
ENDBRANCH  16  17
ENDBRANCH  15  16
BRANCH  15  20
ATOM     20  P   UNL     1      51.793  34.722  20.539  1.00  0.00     0.337 P 
ATOM     21  O   UNL     1      52.194  35.808  19.666  1.00  0.00    -0.260 OA
BRANCH  20  22
ATOM     22  O   UNL     1      52.852  34.592  21.539  1.00  0.00    -0.324 OA
ATOM     23  H   UNL     1      53.678  34.266  21.103  1.00  0.00     0.221 HD
ENDBRANCH  20  22
BRANCH  20  24
ATOM     24  O   UNL     1      50.644  35.244  21.275  1.00  0.00    -0.324 OA
ATOM     25  H   UNL     1      49.810  34.878  20.888  1.00  0.00     0.221 HD
ENDBRANCH  20  24
ENDBRANCH  15  20
ENDBRANCH   1  15
TORSDOF 8
ENDMDL
MODEL 4
REMARK VINA RESULT:    -7.190      1.634      2.161
REMARK INTER + INTRA:         -11.074
REMARK INTER:                 -10.568
REMARK INTRA:                  -0.506
REMARK UNBOUND:                -0.943
REMARK SMILES CC(C)C[C@H](C(=O)Nc1ccc(C(F)(F)F)cc1)P(=O)(O)O
REMARK SMILES IDX 6 1 8 2 7 3 9 5 10 6 11 7 18 8 12 9 17 10 13 11 14 12 15 13
REMARK SMILES IDX 16 14 5 15 4 16 2 17 1 18 3 19 19 20 20 21 22 22 21 24
REMARK H PARENT 8 4 22 23 21 25
ROOT
ATOM      1  C   UNL     1      49.440  32.901  18.824  1.00  0.00     0.239 C 
ATOM      2  N   UNL     1      49.500  33.389  17.466  1.00  0.00    -0.325 N 
ATOM      3  O   UNL     1      48.410  32.722  19.381  1.00  0.00    -0.274 OA
ATOM      4  H   UNL     1      50.422  33.545  17.035  1.00  0.00     0.169 HD
ENDROOT
BRANCH   2   5
ATOM      5  C   UNL     1      48.311  33.665  16.687  1.00  0.00     0.041 A 
ATOM      6  C   UNL     1      48.083  32.883  15.571  1.00  0.00     0.027 A 
ATOM      7  C   UNL     1      46.967  33.089  14.790  1.00  0.00     0.015 A 
ATOM      8  C   UNL     1      47.408  34.661  17.037  1.00  0.00     0.027 A 
ATOM      9  C   UNL     1      46.068  34.081  15.127  1.00  0.00     0.056 A 
ATOM     10  C   UNL     1      46.284  34.869  16.247  1.00  0.00     0.015 A 
BRANCH   9  11
ATOM     11  C   UNL     1      44.835  34.289  14.256  1.00  0.00     0.416 C 
ATOM     12  F   UNL     1      44.458  33.099  13.712  1.00  0.00    -0.166 F 
ATOM     13  F   UNL     1      45.117  35.176  13.260  1.00  0.00    -0.166 F 
ATOM     14  F   UNL     1      43.832  34.808  15.026  1.00  0.00    -0.166 F 
ENDBRANCH   9  11
ENDBRANCH   2   5
BRANCH   1  15
ATOM     15  C   UNL     1      50.752  32.659  19.554  1.00  0.00     0.194 C 
BRANCH  15  16
ATOM     16  C   UNL     1      51.578  31.771  18.636  1.00  0.00     0.029 C 
BRANCH  16  17
ATOM     17  C   UNL     1      50.685  30.692  18.025  1.00  0.00    -0.016 C 
ATOM     18  C   UNL     1      50.713  29.491  18.967  1.00  0.00     0.007 C 
ATOM     19  C   UNL     1      51.142  30.233  16.640  1.00  0.00     0.007 C 
ENDBRANCH  16  17
ENDBRANCH  15  16
BRANCH  15  20
ATOM     20  P   UNL     1      51.615  34.254  19.901  1.00  0.00     0.337 P 
ATOM     21  O   UNL     1      52.933  34.333  19.302  1.00  0.00    -0.260 OA
BRANCH  20  22
ATOM     22  O   UNL     1      51.802  34.516  21.327  1.00  0.00    -0.324 OA
ATOM     23  H   UNL     1      51.787  35.492  21.489  1.00  0.00     0.221 HD
ENDBRANCH  20  22
BRANCH  20  24
ATOM     24  O   UNL     1      50.906  35.426  19.395  1.00  0.00    -0.324 OA
ATOM     25  H   UNL     1      50.138  35.628  19.985  1.00  0.00     0.221 HD
ENDBRANCH  20  24
ENDBRANCH  15  20
ENDBRANCH   1  15
TORSDOF 8
ENDMDL
MODEL 5
REMARK VINA RESULT:    -7.174      4.599      6.047
REMARK INTER + INTRA:         -11.053
REMARK INTER:                 -10.233
REMARK INTRA:                  -0.820
REMARK UNBOUND:                -0.943
REMARK SMILES CC(C)C[C@H](C(=O)Nc1ccc(C(F)(F)F)cc1)P(=O)(O)O
REMARK SMILES IDX 6 1 8 2 7 3 9 5 10 6 11 7 18 8 12 9 17 10 13 11 14 12 15 13
REMARK SMILES IDX 16 14 5 15 4 16 2 17 1 18 3 19 19 20 20 21 22 22 21 24
REMARK H PARENT 8 4 22 23 21 25
ROOT
ATOM      1  C   UNL     1      53.109  36.315  22.152  1.00  0.00     0.239 C 
ATOM      2  N   UNL     1      53.374  35.050  21.508  1.00  0.00    -0.325 N 
ATOM      3  O   UNL     1      52.195  36.998  21.837  1.00  0.00    -0.274 OA
ATOM      4  H   UNL     1      54.194  34.503  21.807  1.00  0.00     0.169 HD
ENDROOT
BRANCH   2   5
ATOM      5  C   UNL     1      52.529  34.521  20.458  1.00  0.00     0.041 A 
ATOM      6  C   UNL     1      51.277  34.060  20.817  1.00  0.00     0.027 A 
ATOM      7  C   UNL     1      50.420  33.551  19.865  1.00  0.00     0.015 A 
ATOM      8  C   UNL     1      52.930  34.483  19.128  1.00  0.00     0.027 A 
ATOM      9  C   UNL     1      50.814  33.504  18.544  1.00  0.00     0.056 A 
ATOM     10  C   UNL     1      52.066  33.967  18.170  1.00  0.00     0.015 A 
BRANCH   9  11
ATOM     11  C   UNL     1      49.850  32.945  17.503  1.00  0.00     0.416 C 
ATOM     12  F   UNL     1      48.982  33.922  17.120  1.00  0.00    -0.166 F 
ATOM     13  F   UNL     1      49.155  31.900  18.033  1.00  0.00    -0.166 F 
ATOM     14  F   UNL     1      50.568  32.490  16.434  1.00  0.00    -0.166 F 
ENDBRANCH   9  11
ENDBRANCH   2   5
BRANCH   1  15
ATOM     15  C   UNL     1      54.072  36.781  23.232  1.00  0.00     0.194 C 
BRANCH  15  16
ATOM     16  C   UNL     1      55.063  37.700  22.534  1.00  0.00     0.029 C 
BRANCH  16  17
ATOM     17  C   UNL     1      56.396  36.975  22.352  1.00  0.00    -0.016 C 
ATOM     18  C   UNL     1      56.933  36.656  23.745  1.00  0.00     0.007 C 
ATOM     19  C   UNL     1      57.444  37.801  21.606  1.00  0.00     0.007 C 
ENDBRANCH  16  17
ENDBRANCH  15  16
BRANCH  15  20
ATOM     20  P   UNL     1      53.170  37.666  24.578  1.00  0.00     0.337 P 
ATOM     21  O   UNL     1      52.187  36.837  25.250  1.00  0.00    -0.260 OA
BRANCH  20  22
ATOM     22  O   UNL     1      52.451  38.851  24.115  1.00  0.00    -0.324 OA
ATOM     23  H   UNL     1      52.928  39.247  23.343  1.00  0.00     0.221 HD
ENDBRANCH  20  22
BRANCH  20  24
ATOM     24  O   UNL     1      54.039  38.149  25.647  1.00  0.00    -0.324 OA
ATOM     25  H   UNL     1      54.982  37.956  25.418  1.00  0.00     0.221 HD
ENDBRANCH  20  24
ENDBRANCH  15  20
ENDBRANCH   1  15
TORSDOF 8
ENDMDL
MODEL 6
REMARK VINA RESULT:    -7.131      1.381      2.167
REMARK INTER + INTRA:         -10.992
REMARK INTER:                 -10.387
REMARK INTRA:                  -0.605
REMARK UNBOUND:                -0.943
REMARK SMILES CC(C)C[C@H](C(=O)Nc1ccc(C(F)(F)F)cc1)P(=O)(O)O
REMARK SMILES IDX 6 1 8 2 7 3 9 5 10 6 11 7 18 8 12 9 17 10 13 11 14 12 15 13
REMARK SMILES IDX 16 14 5 15 4 16 2 17 1 18 3 19 19 20 20 21 22 22 21 24
REMARK H PARENT 8 4 22 23 21 25
ROOT
ATOM      1  C   UNL     1      49.625  33.762  18.837  1.00  0.00     0.239 C 
ATOM      2  N   UNL     1      48.545  32.898  18.424  1.00  0.00    -0.325 N 
ATOM      3  O   UNL     1      49.897  34.751  18.244  1.00  0.00    -0.274 OA
ATOM      4  H   UNL     1      48.362  32.040  18.964  1.00  0.00     0.169 HD
ENDROOT
BRANCH   2   5
ATOM      5  C   UNL     1      47.708  33.192  17.280  1.00  0.00     0.041 A 
ATOM      6  C   UNL     1      48.091  32.673  16.059  1.00  0.00     0.027 A 
ATOM      7  C   UNL     1      47.335  32.909  14.931  1.00  0.00     0.015 A 
ATOM      8  C   UNL     1      46.548  33.949  17.382  1.00  0.00     0.027 A 
ATOM      9  C   UNL     1      46.185  33.666  15.023  1.00  0.00     0.056 A 
ATOM     10  C   UNL     1      45.788  34.189  16.244  1.00  0.00     0.015 A 
BRANCH   9  11
ATOM     11  C   UNL     1      45.357  33.910  13.767  1.00  0.00     0.416 C 
ATOM     12  F   UNL     1      45.948  33.291  12.707  1.00  0.00    -0.166 F 
ATOM     13  F   UNL     1      45.272  35.249  13.523  1.00  0.00    -0.166 F 
ATOM     14  F   UNL     1      44.095  33.426  13.968  1.00  0.00    -0.166 F 
ENDBRANCH   9  11
ENDBRANCH   2   5
BRANCH   1  15
ATOM     15  C   UNL     1      50.450  33.348  20.044  1.00  0.00     0.194 C 
BRANCH  15  16
ATOM     16  C   UNL     1      51.197  32.091  19.622  1.00  0.00     0.029 C 
BRANCH  16  17
ATOM     17  C   UNL     1      52.037  32.385  18.379  1.00  0.00    -0.016 C 
ATOM     18  C   UNL     1      51.567  31.436  17.280  1.00  0.00     0.007 C 
ATOM     19  C   UNL     1      53.536  32.178  18.592  1.00  0.00     0.007 C 
ENDBRANCH  16  17
ENDBRANCH  15  16
BRANCH  15  20
ATOM     20  P   UNL     1      51.619  34.690  20.534  1.00  0.00     0.337 P 
ATOM     21  O   UNL     1      50.988  35.746  21.302  1.00  0.00    -0.260 OA
BRANCH  20  22
ATOM     22  O   UNL     1      52.262  35.345  19.396  1.00  0.00    -0.324 OA
ATOM     23  H   UNL     1      53.245  35.264  19.480  1.00  0.00     0.221 HD
ENDBRANCH  20  22
BRANCH  20  24
ATOM     24  O   UNL     1      52.722  34.230  21.374  1.00  0.00    -0.324 OA
ATOM     25  H   UNL     1      52.737  33.241  21.385  1.00  0.00     0.221 HD
ENDBRANCH  20  24
ENDBRANCH  15  20
ENDBRANCH   1  15
TORSDOF 8
ENDMDL
MODEL 7
REMARK VINA RESULT:    -6.751      5.116      7.613
REMARK INTER + INTRA:         -10.457
REMARK INTER:                  -9.507
REMARK INTRA:                  -0.950
REMARK UNBOUND:                -0.943
REMARK SMILES CC(C)C[C@H](C(=O)Nc1ccc(C(F)(F)F)cc1)P(=O)(O)O
REMARK SMILES IDX 6 1 8 2 7 3 9 5 10 6 11 7 18 8 12 9 17 10 13 11 14 12 15 13
REMARK SMILES IDX 16 14 5 15 4 16 2 17 1 18 3 19 19 20 20 21 22 22 21 24
REMARK H PARENT 8 4 22 23 21 25
ROOT
ATOM      1  C   UNL     1      47.166  33.807  16.688  1.00  0.00     0.239 C 
ATOM      2  N   UNL     1      47.983  32.757  17.248  1.00  0.00    -0.325 N 
ATOM      3  O   UNL     1      47.413  34.953  16.863  1.00  0.00    -0.274 OA
ATOM      4  H   UNL     1      47.713  31.776  17.081  1.00  0.00     0.169 HD
ENDROOT
BRANCH   2   5
ATOM      5  C   UNL     1      49.167  33.029  18.036  1.00  0.00     0.041 A 
ATOM      6  C   UNL     1      50.348  33.253  17.354  1.00  0.00     0.027 A 
ATOM      7  C   UNL     1      51.510  33.526  18.043  1.00  0.00     0.015 A 
ATOM      8  C   UNL     1      49.141  33.087  19.423  1.00  0.00     0.027 A 
ATOM      9  C   UNL     1      51.494  33.578  19.422  1.00  0.00     0.056 A 
ATOM     10  C   UNL     1      50.314  33.358  20.116  1.00  0.00     0.015 A 
BRANCH   9  11
ATOM     11  C   UNL     1      52.787  33.888  20.167  1.00  0.00     0.416 C 
ATOM     12  F   UNL     1      52.493  34.485  21.355  1.00  0.00    -0.166 F 
ATOM     13  F   UNL     1      53.562  34.723  19.417  1.00  0.00    -0.166 F 
ATOM     14  F   UNL     1      53.473  32.724  20.366  1.00  0.00    -0.166 F 
ENDBRANCH   9  11
ENDBRANCH   2   5
BRANCH   1  15
ATOM     15  C   UNL     1      45.935  33.407  15.891  1.00  0.00     0.194 C 
BRANCH  15  16
ATOM     16  C   UNL     1      45.749  31.918  16.138  1.00  0.00     0.029 C 
BRANCH  16  17
ATOM     17  C   UNL     1      45.455  31.210  14.815  1.00  0.00    -0.016 C 
ATOM     18  C   UNL     1      46.116  32.025  13.707  1.00  0.00     0.007 C 
ATOM     19  C   UNL     1      43.963  31.091  14.505  1.00  0.00     0.007 C 
ENDBRANCH  16  17
ENDBRANCH  15  16
BRANCH  15  20
ATOM     20  P   UNL     1      44.456  34.368  16.438  1.00  0.00     0.337 P 
ATOM     21  O   UNL     1      43.659  34.869  15.335  1.00  0.00    -0.260 OA
BRANCH  20  22
ATOM     22  O   UNL     1      44.790  35.531  17.259  1.00  0.00    -0.324 OA
ATOM     23  H   UNL     1      44.134  36.252  17.091  1.00  0.00     0.221 HD
ENDBRANCH  20  22
BRANCH  20  24
ATOM     24  O   UNL     1      43.521  33.593  17.249  1.00  0.00    -0.324 OA
ATOM     25  H   UNL     1      42.777  34.176  17.542  1.00  0.00     0.221 HD
ENDBRANCH  20  24
ENDBRANCH  15  20
ENDBRANCH   1  15
TORSDOF 8
ENDMDL
MODEL 8
REMARK VINA RESULT:    -6.552      5.674      7.263
REMARK INTER + INTRA:         -10.176
REMARK INTER:                  -9.392
REMARK INTRA:                  -0.785
REMARK UNBOUND:                -0.943
REMARK SMILES CC(C)C[C@H](C(=O)Nc1ccc(C(F)(F)F)cc1)P(=O)(O)O
REMARK SMILES IDX 6 1 8 2 7 3 9 5 10 6 11 7 18 8 12 9 17 10 13 11 14 12 15 13
REMARK SMILES IDX 16 14 5 15 4 16 2 17 1 18 3 19 19 20 20 21 22 22 21 24
REMARK H PARENT 8 4 22 23 21 25
ROOT
ATOM      1  C   UNL     1      53.395  36.455  22.927  1.00  0.00     0.239 C 
ATOM      2  N   UNL     1      53.142  35.073  22.591  1.00  0.00    -0.325 N 
ATOM      3  O   UNL     1      53.339  37.316  22.116  1.00  0.00    -0.274 OA
ATOM      4  H   UNL     1      53.223  34.360  23.331  1.00  0.00     0.169 HD
ENDROOT
BRANCH   2   5
ATOM      5  C   UNL     1      52.779  34.652  21.254  1.00  0.00     0.041 A 
ATOM      6  C   UNL     1      53.791  34.192  20.433  1.00  0.00     0.027 A 
ATOM      7  C   UNL     1      53.512  33.769  19.152  1.00  0.00     0.015 A 
ATOM      8  C   UNL     1      51.469  34.682  20.795  1.00  0.00     0.027 A 
ATOM      9  C   UNL     1      52.214  33.802  18.686  1.00  0.00     0.056 A 
ATOM     10  C   UNL     1      51.190  34.258  19.502  1.00  0.00     0.015 A 
BRANCH   9  11
ATOM     11  C   UNL     1      51.923  33.323  17.269  1.00  0.00     0.416 C 
ATOM     12  F   UNL     1      52.674  34.037  16.386  1.00  0.00    -0.166 F 
ATOM     13  F   UNL     1      50.601  33.495  16.985  1.00  0.00    -0.166 F 
ATOM     14  F   UNL     1      52.213  31.991  17.184  1.00  0.00    -0.166 F 
ENDBRANCH   9  11
ENDBRANCH   2   5
BRANCH   1  15
ATOM     15  C   UNL     1      53.785  36.782  24.359  1.00  0.00     0.194 C 
BRANCH  15  16
ATOM     16  C   UNL     1      55.251  37.185  24.306  1.00  0.00     0.029 C 
BRANCH  16  17
ATOM     17  C   UNL     1      55.998  36.565  25.487  1.00  0.00    -0.016 C 
ATOM     18  C   UNL     1      55.087  35.500  26.092  1.00  0.00     0.007 C 
ATOM     19  C   UNL     1      56.358  37.573  26.579  1.00  0.00     0.007 C 
ENDBRANCH  16  17
ENDBRANCH  15  16
BRANCH  15  20
ATOM     20  P   UNL     1      52.737  38.145  25.030  1.00  0.00     0.337 P 
ATOM     21  O   UNL     1      51.573  37.670  25.752  1.00  0.00    -0.260 OA
BRANCH  20  22
ATOM     22  O   UNL     1      52.233  39.052  24.000  1.00  0.00    -0.324 OA
ATOM     23  H   UNL     1      51.617  38.562  23.401  1.00  0.00     0.221 HD
ENDBRANCH  20  22
BRANCH  20  24
ATOM     24  O   UNL     1      53.435  39.008  25.980  1.00  0.00    -0.324 OA
ATOM     25  H   UNL     1      54.287  38.581  26.249  1.00  0.00     0.221 HD
ENDBRANCH  20  24
ENDBRANCH  15  20
ENDBRANCH   1  15
TORSDOF 8
ENDMDL
MODEL 9
REMARK VINA RESULT:    -6.308      5.032      7.861
REMARK INTER + INTRA:          -9.832
REMARK INTER:                  -8.686
REMARK INTRA:                  -1.146
REMARK UNBOUND:                -0.943
REMARK SMILES CC(C)C[C@H](C(=O)Nc1ccc(C(F)(F)F)cc1)P(=O)(O)O
REMARK SMILES IDX 6 1 8 2 7 3 9 5 10 6 11 7 18 8 12 9 17 10 13 11 14 12 15 13
REMARK SMILES IDX 16 14 5 15 4 16 2 17 1 18 3 19 19 20 20 21 22 22 21 24
REMARK H PARENT 8 4 22 23 21 25
ROOT
ATOM      1  C   UNL     1      47.317  33.340  17.030  1.00  0.00     0.239 C 
ATOM      2  N   UNL     1      48.276  32.368  17.499  1.00  0.00    -0.325 N 
ATOM      3  O   UNL     1      47.448  34.499  17.237  1.00  0.00    -0.274 OA
ATOM      4  H   UNL     1      48.105  31.370  17.308  1.00  0.00     0.169 HD
ENDROOT
BRANCH   2   5
ATOM      5  C   UNL     1      49.470  32.743  18.228  1.00  0.00     0.041 A 
ATOM      6  C   UNL     1      50.589  33.077  17.489  1.00  0.00     0.027 A 
ATOM      7  C   UNL     1      51.756  33.450  18.120  1.00  0.00     0.015 A 
ATOM      8  C   UNL     1      49.510  32.792  19.615  1.00  0.00     0.027 A 
ATOM      9  C   UNL     1      51.806  33.494  19.498  1.00  0.00     0.056 A 
ATOM     10  C   UNL     1      50.688  33.165  20.250  1.00  0.00     0.015 A 
BRANCH   9  11
ATOM     11  C   UNL     1      53.103  33.917  20.179  1.00  0.00     0.416 C 
ATOM     12  F   UNL     1      52.813  34.649  21.290  1.00  0.00    -0.166 F 
ATOM     13  F   UNL     1      53.850  34.669  19.321  1.00  0.00    -0.166 F 
ATOM     14  F   UNL     1      53.815  32.800  20.508  1.00  0.00    -0.166 F 
ENDBRANCH   9  11
ENDBRANCH   2   5
BRANCH   1  15
ATOM     15  C   UNL     1      46.090  32.833  16.289  1.00  0.00     0.194 C 
BRANCH  15  16
ATOM     16  C   UNL     1      45.979  33.691  15.038  1.00  0.00     0.029 C 
BRANCH  16  17
ATOM     17  C   UNL     1      44.555  34.230  14.908  1.00  0.00    -0.016 C 
ATOM     18  C   UNL     1      43.907  34.138  16.287  1.00  0.00     0.007 C 
ATOM     19  C   UNL     1      43.694  33.449  13.915  1.00  0.00     0.007 C 
ENDBRANCH  16  17
ENDBRANCH  15  16
BRANCH  15  20
ATOM     20  P   UNL     1      46.270  31.045  15.864  1.00  0.00     0.337 P 
ATOM     21  O   UNL     1      45.130  30.510  15.147  1.00  0.00    -0.260 OA
BRANCH  20  22
ATOM     22  O   UNL     1      46.454  30.186  17.032  1.00  0.00    -0.324 OA
ATOM     23  H   UNL     1      45.788  30.422  17.725  1.00  0.00     0.221 HD
ENDBRANCH  20  22
BRANCH  20  24
ATOM     24  O   UNL     1      47.416  30.760  15.005  1.00  0.00    -0.324 OA
ATOM     25  H   UNL     1      47.985  31.567  14.935  1.00  0.00     0.221 HD
ENDBRANCH  20  24
ENDBRANCH  15  20
ENDBRANCH   1  15
TORSDOF 8
ENDMDL
MODEL 10
REMARK VINA RESULT:    -6.195      9.480     10.885
REMARK INTER + INTRA:          -9.673
REMARK INTER:                  -8.492
REMARK INTRA:                  -1.181
REMARK UNBOUND:                -0.943
REMARK SMILES CC(C)C[C@H](C(=O)Nc1ccc(C(F)(F)F)cc1)P(=O)(O)O
REMARK SMILES IDX 6 1 8 2 7 3 9 5 10 6 11 7 18 8 12 9 17 10 13 11 14 12 15 13
REMARK SMILES IDX 16 14 5 15 4 16 2 17 1 18 3 19 19 20 20 21 22 22 21 24
REMARK H PARENT 8 4 22 23 21 25
ROOT
ATOM      1  C   UNL     1      57.387  37.780  20.569  1.00  0.00     0.239 C 
ATOM      2  N   UNL     1      56.955  36.629  21.326  1.00  0.00    -0.325 N 
ATOM      3  O   UNL     1      57.118  38.885  20.902  1.00  0.00    -0.274 OA
ATOM      4  H   UNL     1      57.200  35.689  20.983  1.00  0.00     0.169 HD
ENDROOT
BRANCH   2   5
ATOM      5  C   UNL     1      56.190  36.746  22.550  1.00  0.00     0.041 A 
ATOM      6  C   UNL     1      56.861  36.558  23.743  1.00  0.00     0.027 A 
ATOM      7  C   UNL     1      56.194  36.663  24.944  1.00  0.00     0.015 A 
ATOM      8  C   UNL     1      54.835  37.054  22.555  1.00  0.00     0.027 A 
ATOM      9  C   UNL     1      54.847  36.961  24.956  1.00  0.00     0.056 A 
ATOM     10  C   UNL     1      54.163  37.156  23.766  1.00  0.00     0.015 A 
BRANCH   9  11
ATOM     11  C   UNL     1      54.127  37.081  26.294  1.00  0.00     0.416 C 
ATOM     12  F   UNL     1      54.490  36.044  27.099  1.00  0.00    -0.166 F 
ATOM     13  F   UNL     1      52.779  37.054  26.097  1.00  0.00    -0.166 F 
ATOM     14  F   UNL     1      54.456  38.276  26.868  1.00  0.00    -0.166 F 
ENDBRANCH   9  11
ENDBRANCH   2   5
BRANCH   1  15
ATOM     15  C   UNL     1      58.172  37.540  19.290  1.00  0.00     0.194 C 
BRANCH  15  16
ATOM     16  C   UNL     1      59.590  38.006  19.582  1.00  0.00     0.029 C 
BRANCH  16  17
ATOM     17  C   UNL     1      59.953  39.162  18.650  1.00  0.00    -0.016 C 
ATOM     18  C   UNL     1      59.991  40.432  19.497  1.00  0.00     0.007 C 
ATOM     19  C   UNL     1      58.953  39.367  17.512  1.00  0.00     0.007 C 
ENDBRANCH  16  17
ENDBRANCH  15  16
BRANCH  15  20
ATOM     20  P   UNL     1      58.135  35.754  18.821  1.00  0.00     0.337 P 
ATOM     21  O   UNL     1      56.794  35.250  18.595  1.00  0.00    -0.260 OA
BRANCH  20  22
ATOM     22  O   UNL     1      58.733  34.877  19.826  1.00  0.00    -0.324 OA
ATOM     23  H   UNL     1      58.053  34.238  20.154  1.00  0.00     0.221 HD
ENDBRANCH  20  22
BRANCH  20  24
ATOM     24  O   UNL     1      58.856  35.457  17.587  1.00  0.00    -0.324 OA
ATOM     25  H   UNL     1      59.690  35.989  17.556  1.00  0.00     0.221 HD
ENDBRANCH  20  24
ENDBRANCH  15  20
ENDBRANCH   1  15
TORSDOF 8
ENDMDL
MODEL 11
REMARK VINA RESULT:    -6.129      1.898      2.527
REMARK INTER + INTRA:          -9.580
REMARK INTER:                  -9.010
REMARK INTRA:                  -0.570
REMARK UNBOUND:                -0.943
REMARK SMILES CC(C)C[C@H](C(=O)Nc1ccc(C(F)(F)F)cc1)P(=O)(O)O
REMARK SMILES IDX 6 1 8 2 7 3 9 5 10 6 11 7 18 8 12 9 17 10 13 11 14 12 15 13
REMARK SMILES IDX 16 14 5 15 4 16 2 17 1 18 3 19 19 20 20 21 22 22 21 24
REMARK H PARENT 8 4 22 23 21 25
ROOT
ATOM      1  C   UNL     1      49.963  32.566  17.837  1.00  0.00     0.239 C 
ATOM      2  N   UNL     1      48.547  32.338  18.003  1.00  0.00    -0.325 N 
ATOM      3  O   UNL     1      50.393  33.204  16.935  1.00  0.00    -0.274 OA
ATOM      4  H   UNL     1      48.227  31.761  18.793  1.00  0.00     0.169 HD
ENDROOT
BRANCH   2   5
ATOM      5  C   UNL     1      47.560  32.891  17.099  1.00  0.00     0.041 A 
ATOM      6  C   UNL     1      47.303  32.197  15.933  1.00  0.00     0.027 A 
ATOM      7  C   UNL     1      46.369  32.664  15.033  1.00  0.00     0.015 A 
ATOM      8  C   UNL     1      46.868  34.062  17.379  1.00  0.00     0.027 A 
ATOM      9  C   UNL     1      45.684  33.831  15.301  1.00  0.00     0.056 A 
ATOM     10  C   UNL     1      45.930  34.534  16.471  1.00  0.00     0.015 A 
BRANCH   9  11
ATOM     11  C   UNL     1      44.649  34.329  14.299  1.00  0.00     0.416 C 
ATOM     12  F   UNL     1      43.635  34.949  14.964  1.00  0.00    -0.166 F 
ATOM     13  F   UNL     1      44.151  33.277  13.589  1.00  0.00    -0.166 F 
ATOM     14  F   UNL     1      45.254  35.190  13.428  1.00  0.00    -0.166 F 
ENDBRANCH   9  11
ENDBRANCH   2   5
BRANCH   1  15
ATOM     15  C   UNL     1      50.913  31.924  18.835  1.00  0.00     0.194 C 
BRANCH  15  16
ATOM     16  C   UNL     1      51.977  31.226  18.003  1.00  0.00     0.029 C 
BRANCH  16  17
ATOM     17  C   UNL     1      51.664  29.732  17.915  1.00  0.00    -0.016 C 
ATOM     18  C   UNL     1      51.223  29.445  16.482  1.00  0.00     0.007 C 
ATOM     19  C   UNL     1      50.553  29.284  18.864  1.00  0.00     0.007 C 
ENDBRANCH  16  17
ENDBRANCH  15  16
BRANCH  15  20
ATOM     20  P   UNL     1      51.656  33.197  19.947  1.00  0.00     0.337 P 
ATOM     21  O   UNL     1      51.780  34.500  19.323  1.00  0.00    -0.260 OA
BRANCH  20  22
ATOM     22  O   UNL     1      52.995  32.846  20.419  1.00  0.00    -0.324 OA
ATOM     23  H   UNL     1      53.154  31.880  20.272  1.00  0.00     0.221 HD
ENDBRANCH  20  22
BRANCH  20  24
ATOM     24  O   UNL     1      50.882  33.439  21.161  1.00  0.00    -0.324 OA
ATOM     25  H   UNL     1      49.934  33.591  20.922  1.00  0.00     0.221 HD
ENDBRANCH  20  24
ENDBRANCH  15  20
ENDBRANCH   1  15
TORSDOF 8
ENDMDL
MODEL 12
REMARK VINA RESULT:    -6.027      1.602      2.182
REMARK INTER + INTRA:          -9.436
REMARK INTER:                  -8.878
REMARK INTRA:                  -0.558
REMARK UNBOUND:                -0.943
REMARK SMILES CC(C)C[C@H](C(=O)Nc1ccc(C(F)(F)F)cc1)P(=O)(O)O
REMARK SMILES IDX 6 1 8 2 7 3 9 5 10 6 11 7 18 8 12 9 17 10 13 11 14 12 15 13
REMARK SMILES IDX 16 14 5 15 4 16 2 17 1 18 3 19 19 20 20 21 22 22 21 24
REMARK H PARENT 8 4 22 23 21 25
ROOT
ATOM      1  C   UNL     1      51.467  33.208  18.057  1.00  0.00     0.239 C 
ATOM      2  N   UNL     1      50.446  32.303  17.584  1.00  0.00    -0.325 N 
ATOM      3  O   UNL     1      51.290  34.378  18.112  1.00  0.00    -0.274 OA
ATOM      4  H   UNL     1      50.659  31.296  17.538  1.00  0.00     0.169 HD
ENDROOT
BRANCH   2   5
ATOM      5  C   UNL     1      49.135  32.758  17.172  1.00  0.00     0.041 A 
ATOM      6  C   UNL     1      48.262  33.167  18.162  1.00  0.00     0.027 A 
ATOM      7  C   UNL     1      47.001  33.619  17.837  1.00  0.00     0.015 A 
ATOM      8  C   UNL     1      48.749  32.808  15.839  1.00  0.00     0.027 A 
ATOM      9  C   UNL     1      46.608  33.664  16.515  1.00  0.00     0.056 A 
ATOM     10  C   UNL     1      47.477  33.260  15.514  1.00  0.00     0.015 A 
BRANCH   9  11
ATOM     11  C   UNL     1      45.213  34.174  16.175  1.00  0.00     0.416 C 
ATOM     12  F   UNL     1      44.838  35.114  17.087  1.00  0.00    -0.166 F 
ATOM     13  F   UNL     1      44.325  33.140  16.197  1.00  0.00    -0.166 F 
ATOM     14  F   UNL     1      45.229  34.702  14.915  1.00  0.00    -0.166 F 
ENDBRANCH   9  11
ENDBRANCH   2   5
BRANCH   1  15
ATOM     15  C   UNL     1      52.815  32.624  18.448  1.00  0.00     0.194 C 
BRANCH  15  16
ATOM     16  C   UNL     1      53.585  32.453  17.147  1.00  0.00     0.029 C 
BRANCH  16  17
ATOM     17  C   UNL     1      54.255  31.079  17.123  1.00  0.00    -0.016 C 
ATOM     18  C   UNL     1      54.748  30.841  15.698  1.00  0.00     0.007 C 
ATOM     19  C   UNL     1      53.318  29.935  17.510  1.00  0.00     0.007 C 
ENDBRANCH  16  17
ENDBRANCH  15  16
BRANCH  15  20
ATOM     20  P   UNL     1      53.705  33.746  19.613  1.00  0.00     0.337 P 
ATOM     21  O   UNL     1      55.107  33.915  19.285  1.00  0.00    -0.260 OA
BRANCH  20  22
ATOM     22  O   UNL     1      53.665  33.292  21.002  1.00  0.00    -0.324 OA
ATOM     23  H   UNL     1      53.926  32.339  21.046  1.00  0.00     0.221 HD
ENDBRANCH  20  22
BRANCH  20  24
ATOM     24  O   UNL     1      53.166  35.103  19.646  1.00  0.00    -0.324 OA
ATOM     25  H   UNL     1      52.406  35.171  19.016  1.00  0.00     0.221 HD
ENDBRANCH  20  24
ENDBRANCH  15  20
ENDBRANCH   1  15
TORSDOF 8
ENDMDL
MODEL 13
REMARK VINA RESULT:    -5.995      8.908     10.247
REMARK INTER + INTRA:          -9.391
REMARK INTER:                  -8.385
REMARK INTRA:                  -1.006
REMARK UNBOUND:                -0.943
REMARK SMILES CC(C)C[C@H](C(=O)Nc1ccc(C(F)(F)F)cc1)P(=O)(O)O
REMARK SMILES IDX 6 1 8 2 7 3 9 5 10 6 11 7 18 8 12 9 17 10 13 11 14 12 15 13
REMARK SMILES IDX 16 14 5 15 4 16 2 17 1 18 3 19 19 20 20 21 22 22 21 24
REMARK H PARENT 8 4 22 23 21 25
ROOT
ATOM      1  C   UNL     1      56.972  37.765  20.733  1.00  0.00     0.239 C 
ATOM      2  N   UNL     1      56.095  36.750  21.266  1.00  0.00    -0.325 N 
ATOM      3  O   UNL     1      57.016  38.858  21.189  1.00  0.00    -0.274 OA
ATOM      4  H   UNL     1      56.082  35.821  20.821  1.00  0.00     0.169 HD
ENDROOT
BRANCH   2   5
ATOM      5  C   UNL     1      55.233  36.988  22.405  1.00  0.00     0.041 A 
ATOM      6  C   UNL     1      53.936  37.390  22.150  1.00  0.00     0.027 A 
ATOM      7  C   UNL     1      53.061  37.626  23.189  1.00  0.00     0.015 A 
ATOM      8  C   UNL     1      55.662  36.808  23.714  1.00  0.00     0.027 A 
ATOM      9  C   UNL     1      53.482  37.457  24.492  1.00  0.00     0.056 A 
ATOM     10  C   UNL     1      54.780  37.049  24.760  1.00  0.00     0.015 A 
BRANCH   9  11
ATOM     11  C   UNL     1      52.499  37.714  25.627  1.00  0.00     0.416 C 
ATOM     12  F   UNL     1      51.897  38.922  25.441  1.00  0.00    -0.166 F 
ATOM     13  F   UNL     1      53.160  37.715  26.819  1.00  0.00    -0.166 F 
ATOM     14  F   UNL     1      51.573  36.711  25.647  1.00  0.00    -0.166 F 
ENDBRANCH   9  11
ENDBRANCH   2   5
BRANCH   1  15
ATOM     15  C   UNL     1      57.823  37.411  19.524  1.00  0.00     0.194 C 
BRANCH  15  16
ATOM     16  C   UNL     1      59.063  38.286  19.621  1.00  0.00     0.029 C 
BRANCH  16  17
ATOM     17  C   UNL     1      58.947  39.454  18.641  1.00  0.00    -0.016 C 
ATOM     18  C   UNL     1      59.618  39.022  17.339  1.00  0.00     0.007 C 
ATOM     19  C   UNL     1      59.622  40.734  19.133  1.00  0.00     0.007 C 
ENDBRANCH  16  17
ENDBRANCH  15  16
BRANCH  15  20
ATOM     20  P   UNL     1      58.264  35.618  19.533  1.00  0.00     0.337 P 
ATOM     21  O   UNL     1      59.327  35.286  18.604  1.00  0.00    -0.260 OA
BRANCH  20  22
ATOM     22  O   UNL     1      57.143  34.742  19.196  1.00  0.00    -0.324 OA
ATOM     23  H   UNL     1      56.347  35.291  18.983  1.00  0.00     0.221 HD
ENDBRANCH  20  22
BRANCH  20  24
ATOM     24  O   UNL     1      58.739  35.138  20.827  1.00  0.00    -0.324 OA
ATOM     25  H   UNL     1      59.669  35.445  20.972  1.00  0.00     0.221 HD
ENDBRANCH  20  24
ENDBRANCH  15  20
ENDBRANCH   1  15
TORSDOF 8
ENDMDL
MODEL 14
REMARK VINA RESULT:    -5.990      9.970     11.247
REMARK INTER + INTRA:          -9.384
REMARK INTER:                  -8.241
REMARK INTRA:                  -1.143
REMARK UNBOUND:                -0.943
REMARK SMILES CC(C)C[C@H](C(=O)Nc1ccc(C(F)(F)F)cc1)P(=O)(O)O
REMARK SMILES IDX 6 1 8 2 7 3 9 5 10 6 11 7 18 8 12 9 17 10 13 11 14 12 15 13
REMARK SMILES IDX 16 14 5 15 4 16 2 17 1 18 3 19 19 20 20 21 22 22 21 24
REMARK H PARENT 8 4 22 23 21 25
ROOT
ATOM      1  C   UNL     1      58.384  38.551  20.697  1.00  0.00     0.239 C 
ATOM      2  N   UNL     1      57.987  37.241  21.155  1.00  0.00    -0.325 N 
ATOM      3  O   UNL     1      58.018  39.540  21.237  1.00  0.00    -0.274 OA
ATOM      4  H   UNL     1      58.319  36.413  20.638  1.00  0.00     0.169 HD
ENDROOT
BRANCH   2   5
ATOM      5  C   UNL     1      57.141  37.045  22.313  1.00  0.00     0.041 A 
ATOM      6  C   UNL     1      55.795  37.326  22.175  1.00  0.00     0.027 A 
ATOM      7  C   UNL     1      54.933  37.155  23.236  1.00  0.00     0.015 A 
ATOM      8  C   UNL     1      57.633  36.576  23.524  1.00  0.00     0.027 A 
ATOM      9  C   UNL     1      55.417  36.696  24.444  1.00  0.00     0.056 A 
ATOM     10  C   UNL     1      56.764  36.406  24.594  1.00  0.00     0.015 A 
BRANCH   9  11
ATOM     11  C   UNL     1      54.447  36.504  25.605  1.00  0.00     0.416 C 
ATOM     12  F   UNL     1      54.432  37.629  26.373  1.00  0.00    -0.166 F 
ATOM     13  F   UNL     1      54.839  35.441  26.363  1.00  0.00    -0.166 F 
ATOM     14  F   UNL     1      53.203  36.244  25.104  1.00  0.00    -0.166 F 
ENDBRANCH   9  11
ENDBRANCH   2   5
BRANCH   1  15
ATOM     15  C   UNL     1      59.263  38.640  19.460  1.00  0.00     0.194 C 
BRANCH  15  16
ATOM     16  C   UNL     1      58.366  38.265  18.289  1.00  0.00     0.029 C 
BRANCH  16  17
ATOM     17  C   UNL     1      58.930  37.031  17.584  1.00  0.00    -0.016 C 
ATOM     18  C   UNL     1      57.891  35.921  17.712  1.00  0.00     0.007 C 
ATOM     19  C   UNL     1      60.248  36.536  18.181  1.00  0.00     0.007 C 
ENDBRANCH  16  17
ENDBRANCH  15  16
BRANCH  15  20
ATOM     20  P   UNL     1      59.949  40.343  19.261  1.00  0.00     0.337 P 
ATOM     21  O   UNL     1      60.894  40.455  18.167  1.00  0.00    -0.260 OA
BRANCH  20  22
ATOM     22  O   UNL     1      60.645  40.831  20.450  1.00  0.00    -0.324 OA
ATOM     23  H   UNL     1      61.088  41.691  20.243  1.00  0.00     0.221 HD
ENDBRANCH  20  22
BRANCH  20  24
ATOM     24  O   UNL     1      58.934  41.354  18.980  1.00  0.00    -0.324 OA
ATOM     25  H   UNL     1      59.376  42.210  18.750  1.00  0.00     0.221 HD
ENDBRANCH  20  24
ENDBRANCH  15  20
ENDBRANCH   1  15
TORSDOF 8
ENDMDL
MODEL 15
REMARK VINA RESULT:    -5.943      9.270     10.422
REMARK INTER + INTRA:          -9.317
REMARK INTER:                  -8.471
REMARK INTRA:                  -0.847
REMARK UNBOUND:                -0.943
REMARK SMILES CC(C)C[C@H](C(=O)Nc1ccc(C(F)(F)F)cc1)P(=O)(O)O
REMARK SMILES IDX 6 1 8 2 7 3 9 5 10 6 11 7 18 8 12 9 17 10 13 11 14 12 15 13
REMARK SMILES IDX 16 14 5 15 4 16 2 17 1 18 3 19 19 20 20 21 22 22 21 24
REMARK H PARENT 8 4 22 23 21 25
ROOT
ATOM      1  C   UNL     1      57.196  36.231  20.325  1.00  0.00     0.239 C 
ATOM      2  N   UNL     1      57.408  37.028  21.510  1.00  0.00    -0.325 N 
ATOM      3  O   UNL     1      56.269  35.502  20.219  1.00  0.00    -0.274 OA
ATOM      4  H   UNL     1      58.241  37.632  21.560  1.00  0.00     0.169 HD
ENDROOT
BRANCH   2   5
ATOM      5  C   UNL     1      56.493  37.010  22.633  1.00  0.00     0.041 A 
ATOM      6  C   UNL     1      56.980  36.563  23.846  1.00  0.00     0.027 A 
ATOM      7  C   UNL     1      56.163  36.528  24.956  1.00  0.00     0.015 A 
ATOM      8  C   UNL     1      55.176  37.439  22.526  1.00  0.00     0.027 A 
ATOM      9  C   UNL     1      54.852  36.945  24.855  1.00  0.00     0.056 A 
ATOM     10  C   UNL     1      54.353  37.400  23.644  1.00  0.00     0.015 A 
BRANCH   9  11
ATOM     11  C   UNL     1      53.966  36.907  26.095  1.00  0.00     0.416 C 
ATOM     12  F   UNL     1      54.079  38.085  26.769  1.00  0.00    -0.166 F 
ATOM     13  F   UNL     1      54.351  35.880  26.906  1.00  0.00    -0.166 F 
ATOM     14  F   UNL     1      52.674  36.692  25.709  1.00  0.00    -0.166 F 
ENDBRANCH   9  11
ENDBRANCH   2   5
BRANCH   1  15
ATOM     15  C   UNL     1      58.230  36.316  19.214  1.00  0.00     0.194 C 
BRANCH  15  16
ATOM     16  C   UNL     1      57.657  35.512  18.056  1.00  0.00     0.029 C 
BRANCH  16  17
ATOM     17  C   UNL     1      58.596  34.354  17.719  1.00  0.00    -0.016 C 
ATOM     18  C   UNL     1      57.913  33.068  18.177  1.00  0.00     0.007 C 
ATOM     19  C   UNL     1      59.958  34.452  18.407  1.00  0.00     0.007 C 
ENDBRANCH  16  17
ENDBRANCH  15  16
BRANCH  15  20
ATOM     20  P   UNL     1      58.531  38.071  18.729  1.00  0.00     0.337 P 
ATOM     21  O   UNL     1      59.920  38.470  18.858  1.00  0.00    -0.260 OA
BRANCH  20  22
ATOM     22  O   UNL     1      57.759  39.032  19.514  1.00  0.00    -0.324 OA
ATOM     23  H   UNL     1      58.097  39.047  20.444  1.00  0.00     0.221 HD
ENDBRANCH  20  22
BRANCH  20  24
ATOM     24  O   UNL     1      58.191  38.362  17.339  1.00  0.00    -0.324 OA
ATOM     25  H   UNL     1      57.522  37.706  17.019  1.00  0.00     0.221 HD
ENDBRANCH  20  24
ENDBRANCH  15  20
ENDBRANCH   1  15
TORSDOF 8
ENDMDL
MODEL 16
REMARK VINA RESULT:    -5.929      2.821      3.389
REMARK INTER + INTRA:          -9.297
REMARK INTER:                  -8.285
REMARK INTRA:                  -1.012
REMARK UNBOUND:                -0.943
REMARK SMILES CC(C)C[C@H](C(=O)Nc1ccc(C(F)(F)F)cc1)P(=O)(O)O
REMARK SMILES IDX 6 1 8 2 7 3 9 5 10 6 11 7 18 8 12 9 17 10 13 11 14 12 15 13
REMARK SMILES IDX 16 14 5 15 4 16 2 17 1 18 3 19 19 20 20 21 22 22 21 24
REMARK H PARENT 8 4 22 23 21 25
ROOT
ATOM      1  C   UNL     1      50.133  31.966  17.411  1.00  0.00     0.239 C 
ATOM      2  N   UNL     1      49.618  33.247  16.989  1.00  0.00    -0.325 N 
ATOM      3  O   UNL     1      49.458  30.993  17.423  1.00  0.00    -0.274 OA
ATOM      4  H   UNL     1      50.243  34.066  17.016  1.00  0.00     0.169 HD
ENDROOT
BRANCH   2   5
ATOM      5  C   UNL     1      48.257  33.424  16.527  1.00  0.00     0.041 A 
ATOM      6  C   UNL     1      47.363  34.023  17.393  1.00  0.00     0.027 A 
ATOM      7  C   UNL     1      46.054  34.228  17.013  1.00  0.00     0.015 A 
ATOM      8  C   UNL     1      47.845  33.033  15.260  1.00  0.00     0.027 A 
ATOM      9  C   UNL     1      45.635  33.835  15.758  1.00  0.00     0.056 A 
ATOM     10  C   UNL     1      46.525  33.237  14.879  1.00  0.00     0.015 A 
BRANCH   9  11
ATOM     11  C   UNL     1      44.186  34.077  15.352  1.00  0.00     0.416 C 
ATOM     12  F   UNL     1      44.153  34.838  14.223  1.00  0.00    -0.166 F 
ATOM     13  F   UNL     1      43.527  34.723  16.356  1.00  0.00    -0.166 F 
ATOM     14  F   UNL     1      43.578  32.873  15.141  1.00  0.00    -0.166 F 
ENDBRANCH   9  11
ENDBRANCH   2   5
BRANCH   1  15
ATOM     15  C   UNL     1      51.573  31.899  17.893  1.00  0.00     0.194 C 
BRANCH  15  16
ATOM     16  C   UNL     1      51.506  31.988  19.410  1.00  0.00     0.029 C 
BRANCH  16  17
ATOM     17  C   UNL     1      52.147  33.295  19.877  1.00  0.00    -0.016 C 
ATOM     18  C   UNL     1      51.025  34.189  20.399  1.00  0.00     0.007 C 
ATOM     19  C   UNL     1      52.888  34.043  18.768  1.00  0.00     0.007 C 
ENDBRANCH  16  17
ENDBRANCH  15  16
BRANCH  15  20
ATOM     20  P   UNL     1      52.375  30.328  17.348  1.00  0.00     0.337 P 
ATOM     21  O   UNL     1      52.382  30.158  15.907  1.00  0.00    -0.260 OA
BRANCH  20  22
ATOM     22  O   UNL     1      51.739  29.130  17.894  1.00  0.00    -0.324 OA
ATOM     23  H   UNL     1      50.939  29.390  18.415  1.00  0.00     0.221 HD
ENDBRANCH  20  22
BRANCH  20  24
ATOM     24  O   UNL     1      53.778  30.219  17.740  1.00  0.00    -0.324 OA
ATOM     25  H   UNL     1      54.184  31.121  17.764  1.00  0.00     0.221 HD
ENDBRANCH  20  24
ENDBRANCH  15  20
ENDBRANCH   1  15
TORSDOF 8
ENDMDL
MODEL 17
REMARK VINA RESULT:    -5.668      5.331      8.020
REMARK INTER + INTRA:          -8.930
REMARK INTER:                  -8.051
REMARK INTRA:                  -0.880
REMARK UNBOUND:                -0.943
REMARK SMILES CC(C)C[C@H](C(=O)Nc1ccc(C(F)(F)F)cc1)P(=O)(O)O
REMARK SMILES IDX 6 1 8 2 7 3 9 5 10 6 11 7 18 8 12 9 17 10 13 11 14 12 15 13
REMARK SMILES IDX 16 14 5 15 4 16 2 17 1 18 3 19 19 20 20 21 22 22 21 24
REMARK H PARENT 8 4 22 23 21 25
ROOT
ATOM      1  C   UNL     1      47.431  31.794  16.826  1.00  0.00     0.239 C 
ATOM      2  N   UNL     1      47.867  32.501  18.007  1.00  0.00    -0.325 N 
ATOM      3  O   UNL     1      48.200  31.299  16.073  1.00  0.00    -0.274 OA
ATOM      4  H   UNL     1      47.158  32.929  18.619  1.00  0.00     0.169 HD
ENDROOT
BRANCH   2   5
ATOM      5  C   UNL     1      49.265  32.631  18.363  1.00  0.00     0.041 A 
ATOM      6  C   UNL     1      49.882  33.838  18.096  1.00  0.00     0.027 A 
ATOM      7  C   UNL     1      51.209  34.030  18.417  1.00  0.00     0.015 A 
ATOM      8  C   UNL     1      49.977  31.603  18.969  1.00  0.00     0.027 A 
ATOM      9  C   UNL     1      51.924  33.011  19.012  1.00  0.00     0.056 A 
ATOM     10  C   UNL     1      51.315  31.797  19.289  1.00  0.00     0.015 A 
BRANCH   9  11
ATOM     11  C   UNL     1      53.388  33.245  19.367  1.00  0.00     0.416 C 
ATOM     12  F   UNL     1      54.120  32.152  19.014  1.00  0.00    -0.166 F 
ATOM     13  F   UNL     1      53.509  33.459  20.708  1.00  0.00    -0.166 F 
ATOM     14  F   UNL     1      53.831  34.357  18.710  1.00  0.00    -0.166 F 
ENDBRANCH   9  11
ENDBRANCH   2   5
BRANCH   1  15
ATOM     15  C   UNL     1      45.939  31.733  16.540  1.00  0.00     0.194 C 
BRANCH  15  16
ATOM     16  C   UNL     1      45.665  32.844  15.538  1.00  0.00     0.029 C 
BRANCH  16  17
ATOM     17  C   UNL     1      44.433  33.637  15.972  1.00  0.00    -0.016 C 
ATOM     18  C   UNL     1      43.859  34.304  14.725  1.00  0.00     0.007 C 
ATOM     19  C   UNL     1      44.738  34.722  17.006  1.00  0.00     0.007 C 
ENDBRANCH  16  17
ENDBRANCH  15  16
BRANCH  15  20
ATOM     20  P   UNL     1      45.467  30.083  15.860  1.00  0.00     0.337 P 
ATOM     21  O   UNL     1      45.835  28.980  16.728  1.00  0.00    -0.260 OA
BRANCH  20  22
ATOM     22  O   UNL     1      46.071  29.795  14.560  1.00  0.00    -0.324 OA
ATOM     23  H   UNL     1      45.437  29.271  14.010  1.00  0.00     0.221 HD
ENDBRANCH  20  22
BRANCH  20  24
ATOM     24  O   UNL     1      44.031  29.925  15.650  1.00  0.00    -0.324 OA
ATOM     25  H   UNL     1      43.541  30.305  16.422  1.00  0.00     0.221 HD
ENDBRANCH  20  24
ENDBRANCH  15  20
ENDBRANCH   1  15
TORSDOF 8
ENDMDL
MODEL 18
REMARK VINA RESULT:    -5.601      1.600      2.227
REMARK INTER + INTRA:          -8.835
REMARK INTER:                  -7.973
REMARK INTRA:                  -0.862
REMARK UNBOUND:                -0.943
REMARK SMILES CC(C)C[C@H](C(=O)Nc1ccc(C(F)(F)F)cc1)P(=O)(O)O
REMARK SMILES IDX 6 1 8 2 7 3 9 5 10 6 11 7 18 8 12 9 17 10 13 11 14 12 15 13
REMARK SMILES IDX 16 14 5 15 4 16 2 17 1 18 3 19 19 20 20 21 22 22 21 24
REMARK H PARENT 8 4 22 23 21 25
ROOT
ATOM      1  C   UNL     1      50.357  32.142  17.091  1.00  0.00     0.239 C 
ATOM      2  N   UNL     1      49.566  33.333  17.294  1.00  0.00    -0.325 N 
ATOM      3  O   UNL     1      49.949  31.216  16.476  1.00  0.00    -0.274 OA
ATOM      4  H   UNL     1      49.962  34.102  17.853  1.00  0.00     0.169 HD
ENDROOT
BRANCH   2   5
ATOM      5  C   UNL     1      48.236  33.485  16.742  1.00  0.00     0.041 A 
ATOM      6  C   UNL     1      47.230  33.881  17.601  1.00  0.00     0.027 A 
ATOM      7  C   UNL     1      45.943  34.053  17.138  1.00  0.00     0.015 A 
ATOM      8  C   UNL     1      47.959  33.268  15.398  1.00  0.00     0.027 A 
ATOM      9  C   UNL     1      45.659  33.831  15.807  1.00  0.00     0.056 A 
ATOM     10  C   UNL     1      46.661  33.438  14.933  1.00  0.00     0.015 A 
BRANCH   9  11
ATOM     11  C   UNL     1      44.232  34.033  15.311  1.00  0.00     0.416 C 
ATOM     12  F   UNL     1      43.523  34.730  16.242  1.00  0.00    -0.166 F 
ATOM     13  F   UNL     1      43.640  32.823  15.101  1.00  0.00    -0.166 F 
ATOM     14  F   UNL     1      44.267  34.709  14.124  1.00  0.00    -0.166 F 
ENDBRANCH   9  11
ENDBRANCH   2   5
BRANCH   1  15
ATOM     15  C   UNL     1      51.735  32.083  17.730  1.00  0.00     0.194 C 
BRANCH  15  16
ATOM     16  C   UNL     1      52.723  32.384  16.613  1.00  0.00     0.029 C 
BRANCH  16  17
ATOM     17  C   UNL     1      53.773  31.275  16.543  1.00  0.00    -0.016 C 
ATOM     18  C   UNL     1      53.404  30.232  17.594  1.00  0.00     0.007 C 
ATOM     19  C   UNL     1      55.195  31.763  16.822  1.00  0.00     0.007 C 
ENDBRANCH  16  17
ENDBRANCH  15  16
BRANCH  15  20
ATOM     20  P   UNL     1      51.878  33.312  19.101  1.00  0.00     0.337 P 
ATOM     21  O   UNL     1      50.762  33.267  20.027  1.00  0.00    -0.260 OA
BRANCH  20  22
ATOM     22  O   UNL     1      51.962  34.695  18.635  1.00  0.00    -0.324 OA
ATOM     23  H   UNL     1      51.604  34.756  17.714  1.00  0.00     0.221 HD
ENDBRANCH  20  22
BRANCH  20  24
ATOM     24  O   UNL     1      53.061  33.124  19.935  1.00  0.00    -0.324 OA
ATOM     25  H   UNL     1      52.783  32.999  20.877  1.00  0.00     0.221 HD
ENDBRANCH  20  24
ENDBRANCH  15  20
ENDBRANCH   1  15
TORSDOF 8
ENDMDL
MODEL 19
REMARK VINA RESULT:    -5.559      9.590     10.911
REMARK INTER + INTRA:          -8.776
REMARK INTER:                  -8.190
REMARK INTRA:                  -0.586
REMARK UNBOUND:                -0.943
REMARK SMILES CC(C)C[C@H](C(=O)Nc1ccc(C(F)(F)F)cc1)P(=O)(O)O
REMARK SMILES IDX 6 1 8 2 7 3 9 5 10 6 11 7 18 8 12 9 17 10 13 11 14 12 15 13
REMARK SMILES IDX 16 14 5 15 4 16 2 17 1 18 3 19 19 20 20 21 22 22 21 24
REMARK H PARENT 8 4 22 23 21 25
ROOT
ATOM      1  C   UNL     1      57.493  37.762  20.604  1.00  0.00     0.239 C 
ATOM      2  N   UNL     1      56.992  36.609  21.315  1.00  0.00    -0.325 N 
ATOM      3  O   UNL     1      57.383  38.860  21.036  1.00  0.00    -0.274 OA
ATOM      4  H   UNL     1      57.097  35.678  20.886  1.00  0.00     0.169 HD
ENDROOT
BRANCH   2   5
ATOM      5  C   UNL     1      56.350  36.712  22.609  1.00  0.00     0.041 A 
ATOM      6  C   UNL     1      55.013  37.059  22.631  1.00  0.00     0.027 A 
ATOM      7  C   UNL     1      54.339  37.167  23.828  1.00  0.00     0.015 A 
ATOM      8  C   UNL     1      57.023  36.458  23.796  1.00  0.00     0.027 A 
ATOM      9  C   UNL     1      55.004  36.924  25.013  1.00  0.00     0.056 A 
ATOM     10  C   UNL     1      56.344  36.571  25.003  1.00  0.00     0.015 A 
BRANCH   9  11
ATOM     11  C   UNL     1      54.241  37.040  26.327  1.00  0.00     0.416 C 
ATOM     12  F   UNL     1      54.651  36.059  27.178  1.00  0.00    -0.166 F 
ATOM     13  F   UNL     1      52.903  36.913  26.097  1.00  0.00    -0.166 F 
ATOM     14  F   UNL     1      54.471  38.274  26.865  1.00  0.00    -0.166 F 
ENDBRANCH   9  11
ENDBRANCH   2   5
BRANCH   1  15
ATOM     15  C   UNL     1      58.136  37.539  19.245  1.00  0.00     0.194 C 
BRANCH  15  16
ATOM     16  C   UNL     1      59.535  38.127  19.349  1.00  0.00     0.029 C 
BRANCH  16  17
ATOM     17  C   UNL     1      60.370  37.297  20.325  1.00  0.00    -0.016 C 
ATOM     18  C   UNL     1      60.725  38.201  21.502  1.00  0.00     0.007 C 
ATOM     19  C   UNL     1      61.666  36.761  19.716  1.00  0.00     0.007 C 
ENDBRANCH  16  17
ENDBRANCH  15  16
BRANCH  15  20
ATOM     20  P   UNL     1      58.192  35.741  18.831  1.00  0.00     0.337 P 
ATOM     21  O   UNL     1      56.893  35.192  18.492  1.00  0.00    -0.260 OA
BRANCH  20  22
ATOM     22  O   UNL     1      58.713  34.911  19.915  1.00  0.00    -0.324 OA
ATOM     23  H   UNL     1      59.692  34.811  19.814  1.00  0.00     0.221 HD
ENDBRANCH  20  22
BRANCH  20  24
ATOM     24  O   UNL     1      59.037  35.431  17.681  1.00  0.00    -0.324 OA
ATOM     25  H   UNL     1      59.869  35.965  17.729  1.00  0.00     0.221 HD
ENDBRANCH  20  24
ENDBRANCH  15  20
ENDBRANCH   1  15
TORSDOF 8
ENDMDL
MODEL 20
REMARK VINA RESULT:    -5.356      9.789     11.338
REMARK INTER + INTRA:          -8.490
REMARK INTER:                  -7.483
REMARK INTRA:                  -1.007
REMARK UNBOUND:                -0.943
REMARK SMILES CC(C)C[C@H](C(=O)Nc1ccc(C(F)(F)F)cc1)P(=O)(O)O
REMARK SMILES IDX 6 1 8 2 7 3 9 5 10 6 11 7 18 8 12 9 17 10 13 11 14 12 15 13
REMARK SMILES IDX 16 14 5 15 4 16 2 17 1 18 3 19 19 20 20 21 22 22 21 24
REMARK H PARENT 8 4 22 23 21 25
ROOT
ATOM      1  C   UNL     1      58.825  37.371  21.796  1.00  0.00     0.239 C 
ATOM      2  N   UNL     1      58.077  36.335  22.469  1.00  0.00    -0.325 N 
ATOM      3  O   UNL     1      58.447  38.494  21.761  1.00  0.00    -0.274 OA
ATOM      4  H   UNL     1      58.441  35.372  22.454  1.00  0.00     0.169 HD
ENDROOT
BRANCH   2   5
ATOM      5  C   UNL     1      56.836  36.601  23.167  1.00  0.00     0.041 A 
ATOM      6  C   UNL     1      56.819  36.406  24.535  1.00  0.00     0.027 A 
ATOM      7  C   UNL     1      55.672  36.648  25.260  1.00  0.00     0.015 A 
ATOM      8  C   UNL     1      55.697  37.053  22.513  1.00  0.00     0.027 A 
ATOM      9  C   UNL     1      54.535  37.090  24.616  1.00  0.00     0.056 A 
ATOM     10  C   UNL     1      54.541  37.293  23.245  1.00  0.00     0.015 A 
BRANCH   9  11
ATOM     11  C   UNL     1      53.278  37.359  25.435  1.00  0.00     0.416 C 
ATOM     12  F   UNL     1      53.478  38.450  26.226  1.00  0.00    -0.166 F 
ATOM     13  F   UNL     1      52.995  36.278  26.216  1.00  0.00    -0.166 F 
ATOM     14  F   UNL     1      52.230  37.564  24.584  1.00  0.00    -0.166 F 
ENDBRANCH   9  11
ENDBRANCH   2   5
BRANCH   1  15
ATOM     15  C   UNL     1      60.107  36.977  21.081  1.00  0.00     0.194 C 
BRANCH  15  16
ATOM     16  C   UNL     1      61.186  37.897  21.633  1.00  0.00     0.029 C 
BRANCH  16  17
ATOM     17  C   UNL     1      61.833  38.676  20.488  1.00  0.00    -0.016 C 
ATOM     18  C   UNL     1      61.963  40.127  20.942  1.00  0.00     0.007 C 
ATOM     19  C   UNL     1      61.022  38.644  19.192  1.00  0.00     0.007 C 
ENDBRANCH  16  17
ENDBRANCH  15  16
BRANCH  15  20
ATOM     20  P   UNL     1      60.514  35.203  21.391  1.00  0.00     0.337 P 
ATOM     21  O   UNL     1      60.729  34.903  22.794  1.00  0.00    -0.260 OA
BRANCH  20  22
ATOM     22  O   UNL     1      61.715  34.751  20.691  1.00  0.00    -0.324 OA
ATOM     23  H   UNL     1      62.301  35.526  20.506  1.00  0.00     0.221 HD
ENDBRANCH  20  22
BRANCH  20  24
ATOM     24  O   UNL     1      59.464  34.279  20.971  1.00  0.00    -0.324 OA
ATOM     25  H   UNL     1      58.782  34.771  20.449  1.00  0.00     0.221 HD
ENDBRANCH  20  24
ENDBRANCH  15  20
ENDBRANCH   1  15
TORSDOF 8
ENDMDL
