MODEL 1
REMARK VINA RESULT:    -8.505      0.000      0.000
REMARK INTER + INTRA:         -15.019
REMARK INTER:                 -13.476
REMARK INTRA:                  -1.543
REMARK UNBOUND:                -1.543
REMARK SMILES CC(C)C[C@H](C(=O)N[C@@H](Cc1ccccn1)C(=O)Nc1ccc(Cl)c(Cl)c1)P(=O)(O)O
REMARK SMILES IDX 8 1 6 2 7 3 9 5 17 6 19 7 18 8 20 10 27 11 21 12 25 13 22 14
REMARK SMILES IDX 23 15 26 16 24 17 10 18 11 19 12 20 16 21 13 22 15 23 14 24
REMARK SMILES IDX 5 25 4 26 2 27 1 28 3 29 28 30 29 31 31 32 30 34
REMARK H PARENT 8 4 19 9 31 33 30 35
ROOT
ATOM      1  N   UNL     1      53.315  35.201  21.932  1.00  0.00    -0.343 N 
ATOM      2  C   UNL     1      52.608  35.211  20.693  1.00  0.00     0.235 C 
ATOM      3  O   UNL     1      52.100  36.244  20.272  1.00  0.00    -0.274 OA
ATOM      4  H   UNL     1      53.767  34.344  22.282  1.00  0.00     0.164 HD
ENDROOT
BRANCH   1   5
ATOM      5  C   UNL     1      53.373  36.431  22.671  1.00  0.00     0.177 C 
BRANCH   5   6
ATOM      6  C   UNL     1      54.535  37.305  22.323  1.00  0.00     0.247 C 
ATOM      7  N   UNL     1      55.747  36.590  22.209  1.00  0.00    -0.324 N 
ATOM      8  O   UNL     1      54.502  38.485  22.160  1.00  0.00    -0.272 OA
ATOM      9  H   UNL     1      55.745  35.618  22.548  1.00  0.00     0.170 HD
BRANCH   7  10
ATOM     10  C   UNL     1      56.970  37.082  21.671  1.00  0.00     0.042 A 
ATOM     11  C   UNL     1      57.125  37.310  20.325  1.00  0.00     0.048 A 
ATOM     12  C   UNL     1      58.038  37.109  22.533  1.00  0.00     0.028 A 
ATOM     13  C   UNL     1      58.376  37.703  19.858  1.00  0.00     0.061 A 
ATOM     14  C   UNL     1      59.261  37.541  22.054  1.00  0.00     0.024 A 
ATOM     15  C   UNL     1      59.405  37.828  20.732  1.00  0.00     0.059 A 
ATOM     16  Cl  UNL     1      58.547  38.060  18.162  1.00  0.00    -0.083 Cl
ATOM     17  Cl  UNL     1      60.974  38.358  20.133  1.00  0.00    -0.083 Cl
ENDBRANCH   7  10
ENDBRANCH   5   6
BRANCH   5  18
ATOM     18  C   UNL     1      53.584  35.963  24.170  1.00  0.00     0.091 C 
BRANCH  18  19
ATOM     19  C   UNL     1      53.602  37.124  25.129  1.00  0.00     0.043 A 
ATOM     20  C   UNL     1      52.554  38.005  25.110  1.00  0.00     0.024 A 
ATOM     21  N   UNL     1      54.637  37.288  25.926  1.00  0.00    -0.261 NA
ATOM     22  C   UNL     1      52.580  39.127  25.970  1.00  0.00     0.003 A 
ATOM     23  C   UNL     1      54.693  38.324  26.747  1.00  0.00     0.111 A 
ATOM     24  C   UNL     1      53.679  39.262  26.795  1.00  0.00     0.020 A 
ENDBRANCH  18  19
ENDBRANCH   5  18
ENDBRANCH   1   5
BRANCH   2  25
ATOM     25  C   UNL     1      52.543  33.842  20.002  1.00  0.00     0.193 C 
BRANCH  25  26
ATOM     26  C   UNL     1      51.237  33.774  19.270  1.00  0.00     0.029 C 
BRANCH  26  27
ATOM     27  C   UNL     1      50.322  32.620  19.712  1.00  0.00    -0.016 C 
ATOM     28  C   UNL     1      48.881  32.916  19.271  1.00  0.00     0.007 C 
ATOM     29  C   UNL     1      50.765  31.247  19.187  1.00  0.00     0.007 C 
ENDBRANCH  26  27
ENDBRANCH  25  26
BRANCH  25  30
ATOM     30  P   UNL     1      53.964  33.468  18.982  1.00  0.00     0.337 P 
ATOM     31  O   UNL     1      55.102  34.318  19.390  1.00  0.00    -0.260 OA
BRANCH  30  32
ATOM     32  O   UNL     1      54.279  32.031  19.097  1.00  0.00    -0.324 OA
ATOM     33  H   UNL     1      54.107  31.585  18.230  1.00  0.00     0.221 HD
ENDBRANCH  30  32
BRANCH  30  34
ATOM     34  O   UNL     1      53.576  33.431  17.504  1.00  0.00    -0.324 OA
ATOM     35  H   UNL     1      54.268  32.941  16.993  1.00  0.00     0.221 HD
ENDBRANCH  30  34
ENDBRANCH  25  30
ENDBRANCH   2  25
TORSDOF 11
ENDMDL
MODEL 2
REMARK VINA RESULT:    -8.145      3.584      7.561
REMARK INTER + INTRA:         -14.449
REMARK INTER:                 -12.934
REMARK INTRA:                  -1.515
REMARK UNBOUND:                -1.543
REMARK SMILES CC(C)C[C@H](C(=O)N[C@@H](Cc1ccccn1)C(=O)Nc1ccc(Cl)c(Cl)c1)P(=O)(O)O
REMARK SMILES IDX 8 1 6 2 7 3 9 5 17 6 19 7 18 8 20 10 27 11 21 12 25 13 22 14
REMARK SMILES IDX 23 15 26 16 24 17 10 18 11 19 12 20 16 21 13 22 15 23 14 24
REMARK SMILES IDX 5 25 4 26 2 27 1 28 3 29 28 30 29 31 31 32 30 34
REMARK H PARENT 8 4 19 9 31 33 30 35
ROOT
ATOM      1  N   UNL     1      54.964  36.324  22.256  1.00  0.00    -0.343 N 
ATOM      2  C   UNL     1      54.391  37.516  22.788  1.00  0.00     0.235 C 
ATOM      3  O   UNL     1      54.141  38.469  22.059  1.00  0.00    -0.274 OA
ATOM      4  H   UNL     1      55.154  35.508  22.856  1.00  0.00     0.164 HD
ENDROOT
BRANCH   1   5
ATOM      5  C   UNL     1      55.267  36.304  20.852  1.00  0.00     0.177 C 
BRANCH   5   6
ATOM      6  C   UNL     1      54.726  35.117  20.122  1.00  0.00     0.247 C 
ATOM      7  N   UNL     1      53.358  34.886  20.384  1.00  0.00    -0.324 N 
ATOM      8  O   UNL     1      55.340  34.400  19.395  1.00  0.00    -0.272 OA
ATOM      9  H   UNL     1      52.938  35.416  21.160  1.00  0.00     0.170 HD
BRANCH   7  10
ATOM     10  C   UNL     1      52.503  33.992  19.679  1.00  0.00     0.042 A 
ATOM     11  C   UNL     1      51.306  34.409  19.148  1.00  0.00     0.048 A 
ATOM     12  C   UNL     1      52.836  32.662  19.746  1.00  0.00     0.028 A 
ATOM     13  C   UNL     1      50.478  33.461  18.552  1.00  0.00     0.061 A 
ATOM     14  C   UNL     1      52.018  31.744  19.112  1.00  0.00     0.024 A 
ATOM     15  C   UNL     1      50.860  32.161  18.531  1.00  0.00     0.059 A 
ATOM     16  Cl  UNL     1      48.996  34.008  17.818  1.00  0.00    -0.083 Cl
ATOM     17  Cl  UNL     1      49.820  30.978  17.744  1.00  0.00    -0.083 Cl
ENDBRANCH   7  10
ENDBRANCH   5   6
BRANCH   5  18
ATOM     18  C   UNL     1      56.846  36.191  20.806  1.00  0.00     0.091 C 
BRANCH  18  19
ATOM     19  C   UNL     1      57.491  37.459  20.313  1.00  0.00     0.043 A 
ATOM     20  C   UNL     1      58.103  37.450  19.087  1.00  0.00     0.024 A 
ATOM     21  N   UNL     1      57.489  38.527  21.083  1.00  0.00    -0.261 NA
ATOM     22  C   UNL     1      58.754  38.619  18.632  1.00  0.00     0.003 A 
ATOM     23  C   UNL     1      58.086  39.640  20.688  1.00  0.00     0.111 A 
ATOM     24  C   UNL     1      58.728  39.719  19.465  1.00  0.00     0.020 A 
ENDBRANCH  18  19
ENDBRANCH   5  18
ENDBRANCH   1   5
BRANCH   2  25
ATOM     25  C   UNL     1      54.159  37.472  24.305  1.00  0.00     0.193 C 
BRANCH  25  26
ATOM     26  C   UNL     1      52.898  38.232  24.586  1.00  0.00     0.029 C 
BRANCH  26  27
ATOM     27  C   UNL     1      53.064  39.385  25.590  1.00  0.00    -0.016 C 
ATOM     28  C   UNL     1      51.796  39.496  26.451  1.00  0.00     0.007 C 
ATOM     29  C   UNL     1      54.303  39.248  26.486  1.00  0.00     0.007 C 
ENDBRANCH  26  27
ENDBRANCH  25  26
BRANCH  25  30
ATOM     30  P   UNL     1      54.180  35.825  25.002  1.00  0.00     0.337 P 
ATOM     31  O   UNL     1      53.569  35.850  26.347  1.00  0.00    -0.260 OA
BRANCH  30  32
ATOM     32  O   UNL     1      53.472  34.904  24.091  1.00  0.00    -0.324 OA
ATOM     33  H   UNL     1      52.621  34.617  24.508  1.00  0.00     0.221 HD
ENDBRANCH  30  32
BRANCH  30  34
ATOM     34  O   UNL     1      55.559  35.185  24.841  1.00  0.00    -0.324 OA
ATOM     35  H   UNL     1      56.259  35.863  25.014  1.00  0.00     0.221 HD
ENDBRANCH  30  34
ENDBRANCH  25  30
ENDBRANCH   2  25
TORSDOF 11
ENDMDL
MODEL 3
REMARK VINA RESULT:    -8.144      1.756      2.617
REMARK INTER + INTRA:         -14.447
REMARK INTER:                 -12.753
REMARK INTRA:                  -1.695
REMARK UNBOUND:                -1.543
REMARK SMILES CC(C)C[C@H](C(=O)N[C@@H](Cc1ccccn1)C(=O)Nc1ccc(Cl)c(Cl)c1)P(=O)(O)O
REMARK SMILES IDX 8 1 6 2 7 3 9 5 17 6 19 7 18 8 20 10 27 11 21 12 25 13 22 14
REMARK SMILES IDX 23 15 26 16 24 17 10 18 11 19 12 20 16 21 13 22 15 23 14 24
REMARK SMILES IDX 5 25 4 26 2 27 1 28 3 29 28 30 29 31 31 32 30 34
REMARK H PARENT 8 4 19 9 31 33 30 35
ROOT
ATOM      1  N   UNL     1      53.207  35.060  21.330  1.00  0.00    -0.343 N 
ATOM      2  C   UNL     1      52.482  35.179  20.107  1.00  0.00     0.235 C 
ATOM      3  O   UNL     1      52.017  36.258  19.758  1.00  0.00    -0.274 OA
ATOM      4  H   UNL     1      53.623  34.164  21.619  1.00  0.00     0.164 HD
ENDROOT
BRANCH   1   5
ATOM      5  C   UNL     1      53.334  36.239  22.141  1.00  0.00     0.177 C 
BRANCH   5   6
ATOM      6  C   UNL     1      54.582  37.024  21.896  1.00  0.00     0.247 C 
ATOM      7  N   UNL     1      55.711  36.207  21.674  1.00  0.00    -0.324 N 
ATOM      8  O   UNL     1      54.675  38.212  21.891  1.00  0.00    -0.272 OA
ATOM      9  H   UNL     1      55.607  35.204  21.882  1.00  0.00     0.170 HD
BRANCH   7  10
ATOM     10  C   UNL     1      56.981  36.634  21.190  1.00  0.00     0.042 A 
ATOM     11  C   UNL     1      58.018  36.923  22.044  1.00  0.00     0.048 A 
ATOM     12  C   UNL     1      57.042  36.944  19.854  1.00  0.00     0.028 A 
ATOM     13  C   UNL     1      59.201  37.423  21.508  1.00  0.00     0.061 A 
ATOM     14  C   UNL     1      58.241  37.401  19.337  1.00  0.00     0.024 A 
ATOM     15  C   UNL     1      59.291  37.632  20.172  1.00  0.00     0.059 A 
ATOM     16  Cl  UNL     1      60.534  37.719  22.589  1.00  0.00    -0.083 Cl
ATOM     17  Cl  UNL     1      60.805  38.233  19.502  1.00  0.00    -0.083 Cl
ENDBRANCH   7  10
ENDBRANCH   5   6
BRANCH   5  18
ATOM     18  C   UNL     1      53.429  35.674  23.617  1.00  0.00     0.091 C 
BRANCH  18  19
ATOM     19  C   UNL     1      53.528  36.775  24.640  1.00  0.00     0.043 A 
ATOM     20  C   UNL     1      52.553  37.737  24.664  1.00  0.00     0.024 A 
ATOM     21  N   UNL     1      54.563  36.812  25.452  1.00  0.00    -0.261 NA
ATOM     22  C   UNL     1      52.658  38.804  25.586  1.00  0.00     0.003 A 
ATOM     23  C   UNL     1      54.693  37.793  26.331  1.00  0.00     0.111 A 
ATOM     24  C   UNL     1      53.756  38.806  26.424  1.00  0.00     0.020 A 
ENDBRANCH  18  19
ENDBRANCH   5  18
ENDBRANCH   1   5
BRANCH   2  25
ATOM     25  C   UNL     1      52.343  33.859  19.335  1.00  0.00     0.193 C 
BRANCH  25  26
ATOM     26  C   UNL     1      53.623  33.101  19.514  1.00  0.00     0.029 C 
BRANCH  26  27
ATOM     27  C   UNL     1      54.481  33.000  18.242  1.00  0.00    -0.016 C 
ATOM     28  C   UNL     1      53.598  33.258  17.011  1.00  0.00     0.007 C 
ATOM     29  C   UNL     1      55.688  33.949  18.237  1.00  0.00     0.007 C 
ENDBRANCH  26  27
ENDBRANCH  25  26
BRANCH  25  30
ATOM     30  P   UNL     1      50.881  32.917  19.755  1.00  0.00     0.337 P 
ATOM     31  O   UNL     1      51.078  31.503  19.372  1.00  0.00    -0.260 OA
BRANCH  30  32
ATOM     32  O   UNL     1      50.606  33.065  21.197  1.00  0.00    -0.324 OA
ATOM     33  H   UNL     1      49.839  32.489  21.447  1.00  0.00     0.221 HD
ENDBRANCH  30  32
BRANCH  30  34
ATOM     34  O   UNL     1      49.618  33.632  19.274  1.00  0.00    -0.324 OA
ATOM     35  H   UNL     1      49.308  34.259  19.975  1.00  0.00     0.221 HD
ENDBRANCH  30  34
ENDBRANCH  25  30
ENDBRANCH   2  25
TORSDOF 11
ENDMDL
MODEL 4
REMARK VINA RESULT:    -8.085      7.599     11.785
REMARK INTER + INTRA:         -14.354
REMARK INTER:                 -12.510
REMARK INTRA:                  -1.844
REMARK UNBOUND:                -1.543
REMARK SMILES CC(C)C[C@H](C(=O)N[C@@H](Cc1ccccn1)C(=O)Nc1ccc(Cl)c(Cl)c1)P(=O)(O)O
REMARK SMILES IDX 8 1 6 2 7 3 9 5 17 6 19 7 18 8 20 10 27 11 21 12 25 13 22 14
REMARK SMILES IDX 23 15 26 16 24 17 10 18 11 19 12 20 16 21 13 22 15 23 14 24
REMARK SMILES IDX 5 25 4 26 2 27 1 28 3 29 28 30 29 31 31 32 30 34
REMARK H PARENT 8 4 19 9 31 33 30 35
ROOT
ATOM      1  N   UNL     1      49.636  32.868  17.920  1.00  0.00    -0.343 N 
ATOM      2  C   UNL     1      49.949  32.981  19.307  1.00  0.00     0.235 C 
ATOM      3  O   UNL     1      49.068  32.897  20.155  1.00  0.00    -0.274 OA
ATOM      4  H   UNL     1      50.372  32.913  17.200  1.00  0.00     0.164 HD
ENDROOT
BRANCH   1   5
ATOM      5  C   UNL     1      48.256  32.689  17.565  1.00  0.00     0.177 C 
BRANCH   5   6
ATOM      6  C   UNL     1      48.002  31.551  16.630  1.00  0.00     0.247 C 
ATOM      7  N   UNL     1      46.756  30.925  16.850  1.00  0.00    -0.324 N 
ATOM      8  O   UNL     1      48.742  31.161  15.781  1.00  0.00    -0.272 OA
ATOM      9  H   UNL     1      46.255  31.179  17.713  1.00  0.00     0.170 HD
BRANCH   7  10
ATOM     10  C   UNL     1      46.125  29.977  15.995  1.00  0.00     0.042 A 
ATOM     11  C   UNL     1      45.374  30.370  14.913  1.00  0.00     0.048 A 
ATOM     12  C   UNL     1      46.129  28.676  16.433  1.00  0.00     0.028 A 
ATOM     13  C   UNL     1      44.710  29.394  14.176  1.00  0.00     0.061 A 
ATOM     14  C   UNL     1      45.496  27.718  15.661  1.00  0.00     0.024 A 
ATOM     15  C   UNL     1      44.802  28.096  14.554  1.00  0.00     0.059 A 
ATOM     16  Cl  UNL     1      43.820  29.893  12.765  1.00  0.00    -0.083 Cl
ATOM     17  Cl  UNL     1      43.984  26.867  13.592  1.00  0.00    -0.083 Cl
ENDBRANCH   7  10
ENDBRANCH   5   6
BRANCH   5  18
ATOM     18  C   UNL     1      47.890  34.016  16.781  1.00  0.00     0.091 C 
BRANCH  18  19
ATOM     19  C   UNL     1      46.498  33.971  16.209  1.00  0.00     0.043 A 
ATOM     20  C   UNL     1      46.343  34.087  14.852  1.00  0.00     0.024 A 
ATOM     21  N   UNL     1      45.468  33.865  17.021  1.00  0.00    -0.261 NA
ATOM     22  C   UNL     1      45.040  34.094  14.305  1.00  0.00     0.003 A 
ATOM     23  C   UNL     1      44.234  33.865  16.544  1.00  0.00     0.111 A 
ATOM     24  C   UNL     1      43.985  33.977  15.188  1.00  0.00     0.020 A 
ENDBRANCH  18  19
ENDBRANCH   5  18
ENDBRANCH   1   5
BRANCH   2  25
ATOM     25  C   UNL     1      51.437  33.233  19.590  1.00  0.00     0.193 C 
BRANCH  25  26
ATOM     26  C   UNL     1      52.184  32.963  18.320  1.00  0.00     0.029 C 
BRANCH  26  27
ATOM     27  C   UNL     1      53.072  31.708  18.364  1.00  0.00    -0.016 C 
ATOM     28  C   UNL     1      52.610  30.721  17.281  1.00  0.00     0.007 C 
ATOM     29  C   UNL     1      54.570  32.008  18.204  1.00  0.00     0.007 C 
ENDBRANCH  26  27
ENDBRANCH  25  26
BRANCH  25  30
ATOM     30  P   UNL     1      51.785  34.835  20.306  1.00  0.00     0.337 P 
ATOM     31  O   UNL     1      53.197  34.887  20.737  1.00  0.00    -0.260 OA
BRANCH  30  32
ATOM     32  O   UNL     1      51.469  35.887  19.320  1.00  0.00    -0.324 OA
ATOM     33  H   UNL     1      52.269  36.069  18.764  1.00  0.00     0.221 HD
ENDBRANCH  30  32
BRANCH  30  34
ATOM     34  O   UNL     1      50.703  35.227  21.312  1.00  0.00    -0.324 OA
ATOM     35  H   UNL     1      50.443  36.171  21.167  1.00  0.00     0.221 HD
ENDBRANCH  30  34
ENDBRANCH  25  30
ENDBRANCH   2  25
TORSDOF 11
ENDMDL
MODEL 5
REMARK VINA RESULT:    -7.785      4.372      7.921
REMARK INTER + INTRA:         -13.879
REMARK INTER:                 -11.835
REMARK INTRA:                  -2.045
REMARK UNBOUND:                -1.543
REMARK SMILES CC(C)C[C@H](C(=O)N[C@@H](Cc1ccccn1)C(=O)Nc1ccc(Cl)c(Cl)c1)P(=O)(O)O
REMARK SMILES IDX 8 1 6 2 7 3 9 5 17 6 19 7 18 8 20 10 27 11 21 12 25 13 22 14
REMARK SMILES IDX 23 15 26 16 24 17 10 18 11 19 12 20 16 21 13 22 15 23 14 24
REMARK SMILES IDX 5 25 4 26 2 27 1 28 3 29 28 30 29 31 31 32 30 34
REMARK H PARENT 8 4 19 9 31 33 30 35
ROOT
ATOM      1  N   UNL     1      49.669  32.481  17.739  1.00  0.00    -0.343 N 
ATOM      2  C   UNL     1      48.377  32.711  18.298  1.00  0.00     0.235 C 
ATOM      3  O   UNL     1      48.232  32.833  19.509  1.00  0.00    -0.274 OA
ATOM      4  H   UNL     1      49.805  32.402  16.721  1.00  0.00     0.164 HD
ENDROOT
BRANCH   1   5
ATOM      5  C   UNL     1      50.773  32.365  18.651  1.00  0.00     0.177 C 
BRANCH   5   6
ATOM      6  C   UNL     1      51.356  33.672  19.084  1.00  0.00     0.247 C 
ATOM      7  N   UNL     1      52.237  33.546  20.179  1.00  0.00    -0.324 N 
ATOM      8  O   UNL     1      51.127  34.737  18.601  1.00  0.00    -0.272 OA
ATOM      9  H   UNL     1      52.242  32.640  20.668  1.00  0.00     0.170 HD
BRANCH   7  10
ATOM     10  C   UNL     1      53.119  34.548  20.673  1.00  0.00     0.042 A 
ATOM     11  C   UNL     1      52.711  35.471  21.606  1.00  0.00     0.048 A 
ATOM     12  C   UNL     1      54.317  34.673  20.014  1.00  0.00     0.028 A 
ATOM     13  C   UNL     1      53.597  36.479  21.975  1.00  0.00     0.061 A 
ATOM     14  C   UNL     1      55.197  35.657  20.427  1.00  0.00     0.024 A 
ATOM     15  C   UNL     1      54.820  36.537  21.394  1.00  0.00     0.059 A 
ATOM     16  Cl  UNL     1      53.099  37.602  23.210  1.00  0.00    -0.083 Cl
ATOM     17  Cl  UNL     1      55.945  37.796  21.895  1.00  0.00    -0.083 Cl
ENDBRANCH   7  10
ENDBRANCH   5   6
BRANCH   5  18
ATOM     18  C   UNL     1      51.888  31.624  17.804  1.00  0.00     0.091 C 
BRANCH  18  19
ATOM     19  C   UNL     1      51.786  30.126  17.921  1.00  0.00     0.043 A 
ATOM     20  C   UNL     1      52.851  29.363  17.521  1.00  0.00     0.024 A 
ATOM     21  N   UNL     1      50.669  29.587  18.362  1.00  0.00    -0.261 NA
ATOM     22  C   UNL     1      52.752  27.954  17.580  1.00  0.00     0.003 A 
ATOM     23  C   UNL     1      50.542  28.271  18.434  1.00  0.00     0.111 A 
ATOM     24  C   UNL     1      51.567  27.426  18.051  1.00  0.00     0.020 A 
ENDBRANCH  18  19
ENDBRANCH   5  18
ENDBRANCH   1   5
BRANCH   2  25
ATOM     25  C   UNL     1      47.249  32.759  17.257  1.00  0.00     0.193 C 
BRANCH  25  26
ATOM     26  C   UNL     1      47.413  34.030  16.481  1.00  0.00     0.029 C 
BRANCH  26  27
ATOM     27  C   UNL     1      46.089  34.700  16.077  1.00  0.00    -0.016 C 
ATOM     28  C   UNL     1      45.789  34.386  14.603  1.00  0.00     0.007 C 
ATOM     29  C   UNL     1      44.900  34.294  16.958  1.00  0.00     0.007 C 
ENDBRANCH  26  27
ENDBRANCH  25  26
BRANCH  25  30
ATOM     30  P   UNL     1      47.135  31.297  16.233  1.00  0.00     0.337 P 
ATOM     31  O   UNL     1      45.721  31.050  15.881  1.00  0.00    -0.260 OA
BRANCH  30  32
ATOM     32  O   UNL     1      47.979  31.476  15.036  1.00  0.00    -0.324 OA
ATOM     33  H   UNL     1      48.910  31.215  15.247  1.00  0.00     0.221 HD
ENDBRANCH  30  32
BRANCH  30  34
ATOM     34  O   UNL     1      47.946  30.149  16.833  1.00  0.00    -0.324 OA
ATOM     35  H   UNL     1      47.499  29.289  16.631  1.00  0.00     0.221 HD
ENDBRANCH  30  34
ENDBRANCH  25  30
ENDBRANCH   2  25
TORSDOF 11
ENDMDL
MODEL 6
REMARK VINA RESULT:    -7.619      3.599      6.441
REMARK INTER + INTRA:         -13.615
REMARK INTER:                 -12.058
REMARK INTRA:                  -1.557
REMARK UNBOUND:                -1.543
REMARK SMILES CC(C)C[C@H](C(=O)N[C@@H](Cc1ccccn1)C(=O)Nc1ccc(Cl)c(Cl)c1)P(=O)(O)O
REMARK SMILES IDX 8 1 6 2 7 3 9 5 17 6 19 7 18 8 20 10 27 11 21 12 25 13 22 14
REMARK SMILES IDX 23 15 26 16 24 17 10 18 11 19 12 20 16 21 13 22 15 23 14 24
REMARK SMILES IDX 5 25 4 26 2 27 1 28 3 29 28 30 29 31 31 32 30 34
REMARK H PARENT 8 4 19 9 31 33 30 35
ROOT
ATOM      1  N   UNL     1      55.999  37.009  21.351  1.00  0.00    -0.343 N 
ATOM      2  C   UNL     1      55.735  36.822  22.740  1.00  0.00     0.235 C 
ATOM      3  O   UNL     1      56.650  36.601  23.526  1.00  0.00    -0.274 OA
ATOM      4  H   UNL     1      55.241  37.220  20.686  1.00  0.00     0.164 HD
ENDROOT
BRANCH   1   5
ATOM      5  C   UNL     1      57.363  36.894  20.915  1.00  0.00     0.177 C 
BRANCH   5   6
ATOM      6  C   UNL     1      57.879  38.089  20.180  1.00  0.00     0.247 C 
ATOM      7  N   UNL     1      58.564  38.996  21.017  1.00  0.00    -0.324 N 
ATOM      8  O   UNL     1      57.744  38.311  19.017  1.00  0.00    -0.272 OA
ATOM      9  H   UNL     1      58.479  38.846  22.032  1.00  0.00     0.170 HD
BRANCH   7  10
ATOM     10  C   UNL     1      59.362  40.097  20.595  1.00  0.00     0.042 A 
ATOM     11  C   UNL     1      60.729  40.001  20.497  1.00  0.00     0.048 A 
ATOM     12  C   UNL     1      58.717  41.305  20.500  1.00  0.00     0.028 A 
ATOM     13  C   UNL     1      61.453  41.143  20.167  1.00  0.00     0.061 A 
ATOM     14  C   UNL     1      59.452  42.418  20.132  1.00  0.00     0.024 A 
ATOM     15  C   UNL     1      60.799  42.315  19.974  1.00  0.00     0.059 A 
ATOM     16  Cl  UNL     1      63.178  40.997  19.975  1.00  0.00    -0.083 Cl
ATOM     17  Cl  UNL     1      61.724  43.745  19.524  1.00  0.00    -0.083 Cl
ENDBRANCH   7  10
ENDBRANCH   5   6
BRANCH   5  18
ATOM     18  C   UNL     1      57.328  35.697  19.877  1.00  0.00     0.091 C 
BRANCH  18  19
ATOM     19  C   UNL     1      58.384  34.664  20.169  1.00  0.00     0.043 A 
ATOM     20  C   UNL     1      59.142  34.802  21.302  1.00  0.00     0.024 A 
ATOM     21  N   UNL     1      58.583  33.684  19.313  1.00  0.00    -0.261 NA
ATOM     22  C   UNL     1      60.169  33.867  21.564  1.00  0.00     0.003 A 
ATOM     23  C   UNL     1      59.533  32.788  19.528  1.00  0.00     0.111 A 
ATOM     24  C   UNL     1      60.344  32.851  20.646  1.00  0.00     0.020 A 
ENDBRANCH  18  19
ENDBRANCH   5  18
ENDBRANCH   1   5
BRANCH   2  25
ATOM     25  C   UNL     1      54.246  36.900  23.107  1.00  0.00     0.193 C 
BRANCH  25  26
ATOM     26  C   UNL     1      54.054  38.143  23.922  1.00  0.00     0.029 C 
BRANCH  26  27
ATOM     27  C   UNL     1      53.659  37.884  25.386  1.00  0.00    -0.016 C 
ATOM     28  C   UNL     1      52.412  38.713  25.730  1.00  0.00     0.007 C 
ATOM     29  C   UNL     1      53.415  36.403  25.705  1.00  0.00     0.007 C 
ENDBRANCH  26  27
ENDBRANCH  25  26
BRANCH  25  30
ATOM     30  P   UNL     1      53.140  36.777  21.707  1.00  0.00     0.337 P 
ATOM     31  O   UNL     1      53.676  35.797  20.739  1.00  0.00    -0.260 OA
BRANCH  30  32
ATOM     32  O   UNL     1      51.794  36.402  22.183  1.00  0.00    -0.324 OA
ATOM     33  H   UNL     1      51.647  35.435  22.030  1.00  0.00     0.221 HD
ENDBRANCH  30  32
BRANCH  30  34
ATOM     34  O   UNL     1      52.752  38.164  21.197  1.00  0.00    -0.324 OA
ATOM     35  H   UNL     1      51.765  38.234  21.147  1.00  0.00     0.221 HD
ENDBRANCH  30  34
ENDBRANCH  25  30
ENDBRANCH   2  25
TORSDOF 11
ENDMDL
MODEL 7
REMARK VINA RESULT:    -7.607      3.564      6.758
REMARK INTER + INTRA:         -13.597
REMARK INTER:                 -11.430
REMARK INTRA:                  -2.167
REMARK UNBOUND:                -1.543
REMARK SMILES CC(C)C[C@H](C(=O)N[C@@H](Cc1ccccn1)C(=O)Nc1ccc(Cl)c(Cl)c1)P(=O)(O)O
REMARK SMILES IDX 8 1 6 2 7 3 9 5 17 6 19 7 18 8 20 10 27 11 21 12 25 13 22 14
REMARK SMILES IDX 23 15 26 16 24 17 10 18 11 19 12 20 16 21 13 22 15 23 14 24
REMARK SMILES IDX 5 25 4 26 2 27 1 28 3 29 28 30 29 31 31 32 30 34
REMARK H PARENT 8 4 19 9 31 33 30 35
ROOT
ATOM      1  N   UNL     1      49.964  33.175  18.535  1.00  0.00    -0.343 N 
ATOM      2  C   UNL     1      48.557  32.963  18.642  1.00  0.00     0.235 C 
ATOM      3  O   UNL     1      48.014  32.913  19.739  1.00  0.00    -0.274 OA
ATOM      4  H   UNL     1      50.426  33.244  17.617  1.00  0.00     0.164 HD
ENDROOT
BRANCH   1   5
ATOM      5  C   UNL     1      50.710  33.288  19.756  1.00  0.00     0.177 C 
BRANCH   5   6
ATOM      6  C   UNL     1      51.525  34.537  19.867  1.00  0.00     0.247 C 
ATOM      7  N   UNL     1      52.643  34.391  20.717  1.00  0.00    -0.324 N 
ATOM      8  O   UNL     1      51.295  35.576  19.330  1.00  0.00    -0.272 OA
ATOM      9  H   UNL     1      52.677  33.541  21.297  1.00  0.00     0.170 HD
BRANCH   7  10
ATOM     10  C   UNL     1      53.727  35.304  20.850  1.00  0.00     0.042 A 
ATOM     11  C   UNL     1      54.902  35.133  20.159  1.00  0.00     0.048 A 
ATOM     12  C   UNL     1      53.612  36.231  21.856  1.00  0.00     0.028 A 
ATOM     13  C   UNL     1      55.953  36.013  20.407  1.00  0.00     0.061 A 
ATOM     14  C   UNL     1      54.654  37.119  22.057  1.00  0.00     0.024 A 
ATOM     15  C   UNL     1      55.798  36.991  21.331  1.00  0.00     0.059 A 
ATOM     16  Cl  UNL     1      57.413  35.833  19.475  1.00  0.00    -0.083 Cl
ATOM     17  Cl  UNL     1      57.123  38.118  21.611  1.00  0.00    -0.083 Cl
ENDBRANCH   7  10
ENDBRANCH   5   6
BRANCH   5  18
ATOM     18  C   UNL     1      51.732  32.079  19.690  1.00  0.00     0.091 C 
BRANCH  18  19
ATOM     19  C   UNL     1      52.257  31.857  18.296  1.00  0.00     0.043 A 
ATOM     20  C   UNL     1      52.252  30.585  17.788  1.00  0.00     0.024 A 
ATOM     21  N   UNL     1      52.743  32.876  17.619  1.00  0.00    -0.261 NA
ATOM     22  C   UNL     1      52.787  30.353  16.500  1.00  0.00     0.003 A 
ATOM     23  C   UNL     1      53.248  32.697  16.409  1.00  0.00     0.111 A 
ATOM     24  C   UNL     1      53.284  31.447  15.819  1.00  0.00     0.020 A 
ENDBRANCH  18  19
ENDBRANCH   5  18
ENDBRANCH   1   5
BRANCH   2  25
ATOM     25  C   UNL     1      47.849  32.791  17.290  1.00  0.00     0.193 C 
BRANCH  25  26
ATOM     26  C   UNL     1      47.743  34.150  16.667  1.00  0.00     0.029 C 
BRANCH  26  27
ATOM     27  C   UNL     1      46.325  34.523  16.202  1.00  0.00    -0.016 C 
ATOM     28  C   UNL     1      46.142  34.098  14.736  1.00  0.00     0.007 C 
ATOM     29  C   UNL     1      45.213  33.918  17.071  1.00  0.00     0.007 C 
ENDBRANCH  26  27
ENDBRANCH  25  26
BRANCH  25  30
ATOM     30  P   UNL     1      48.596  31.564  16.224  1.00  0.00     0.337 P 
ATOM     31  O   UNL     1      49.790  32.140  15.570  1.00  0.00    -0.260 OA
BRANCH  30  32
ATOM     32  O   UNL     1      48.926  30.366  17.019  1.00  0.00    -0.324 OA
ATOM     33  H   UNL     1      48.658  29.554  16.518  1.00  0.00     0.221 HD
ENDBRANCH  30  32
BRANCH  30  34
ATOM     34  O   UNL     1      47.540  30.892  15.347  1.00  0.00    -0.324 OA
ATOM     35  H   UNL     1      47.087  30.179  15.864  1.00  0.00     0.221 HD
ENDBRANCH  30  34
ENDBRANCH  25  30
ENDBRANCH   2  25
TORSDOF 11
ENDMDL
MODEL 8
REMARK VINA RESULT:    -7.588      6.478     10.242
REMARK INTER + INTRA:         -13.567
REMARK INTER:                 -12.110
REMARK INTRA:                  -1.457
REMARK UNBOUND:                -1.543
REMARK SMILES CC(C)C[C@H](C(=O)N[C@@H](Cc1ccccn1)C(=O)Nc1ccc(Cl)c(Cl)c1)P(=O)(O)O
REMARK SMILES IDX 8 1 6 2 7 3 9 5 17 6 19 7 18 8 20 10 27 11 21 12 25 13 22 14
REMARK SMILES IDX 23 15 26 16 24 17 10 18 11 19 12 20 16 21 13 22 15 23 14 24
REMARK SMILES IDX 5 25 4 26 2 27 1 28 3 29 28 30 29 31 31 32 30 34
REMARK H PARENT 8 4 19 9 31 33 30 35
ROOT
ATOM      1  N   UNL     1      50.791  32.544  17.696  1.00  0.00    -0.343 N 
ATOM      2  C   UNL     1      50.936  32.805  19.090  1.00  0.00     0.235 C 
ATOM      3  O   UNL     1      50.074  32.449  19.886  1.00  0.00    -0.274 OA
ATOM      4  H   UNL     1      51.522  32.817  17.022  1.00  0.00     0.164 HD
ENDROOT
BRANCH   1   5
ATOM      5  C   UNL     1      49.589  31.887  17.267  1.00  0.00     0.177 C 
BRANCH   5   6
ATOM      6  C   UNL     1      49.698  30.398  17.177  1.00  0.00     0.247 C 
ATOM      7  N   UNL     1      50.774  29.879  17.929  1.00  0.00    -0.324 N 
ATOM      8  O   UNL     1      48.990  29.679  16.543  1.00  0.00    -0.272 OA
ATOM      9  H   UNL     1      51.457  30.559  18.293  1.00  0.00     0.170 HD
BRANCH   7  10
ATOM     10  C   UNL     1      51.006  28.508  18.235  1.00  0.00     0.042 A 
ATOM     11  C   UNL     1      51.774  27.708  17.424  1.00  0.00     0.048 A 
ATOM     12  C   UNL     1      50.252  27.984  19.256  1.00  0.00     0.028 A 
ATOM     13  C   UNL     1      51.883  26.356  17.735  1.00  0.00     0.061 A 
ATOM     14  C   UNL     1      50.408  26.646  19.572  1.00  0.00     0.024 A 
ATOM     15  C   UNL     1      51.216  25.863  18.807  1.00  0.00     0.059 A 
ATOM     16  Cl  UNL     1      52.915  25.364  16.743  1.00  0.00    -0.083 Cl
ATOM     17  Cl  UNL     1      51.389  24.157  19.209  1.00  0.00    -0.083 Cl
ENDBRANCH   7  10
ENDBRANCH   5   6
BRANCH   5  18
ATOM     18  C   UNL     1      49.371  32.421  15.791  1.00  0.00     0.091 C 
BRANCH  18  19
ATOM     19  C   UNL     1      48.053  33.134  15.636  1.00  0.00     0.043 A 
ATOM     20  C   UNL     1      47.665  34.014  16.612  1.00  0.00     0.024 A 
ATOM     21  N   UNL     1      47.292  32.866  14.597  1.00  0.00    -0.261 NA
ATOM     22  C   UNL     1      46.410  34.655  16.505  1.00  0.00     0.003 A 
ATOM     23  C   UNL     1      46.111  33.450  14.461  1.00  0.00     0.111 A 
ATOM     24  C   UNL     1      45.641  34.351  15.399  1.00  0.00     0.020 A 
ENDBRANCH  18  19
ENDBRANCH   5  18
ENDBRANCH   1   5
BRANCH   2  25
ATOM     25  C   UNL     1      52.220  33.566  19.451  1.00  0.00     0.193 C 
BRANCH  25  26
ATOM     26  C   UNL     1      52.885  33.953  18.165  1.00  0.00     0.029 C 
BRANCH  26  27
ATOM     27  C   UNL     1      54.264  33.308  17.946  1.00  0.00    -0.016 C 
ATOM     28  C   UNL     1      55.333  34.134  18.679  1.00  0.00     0.007 C 
ATOM     29  C   UNL     1      54.334  31.840  18.388  1.00  0.00     0.007 C 
ENDBRANCH  26  27
ENDBRANCH  25  26
BRANCH  25  30
ATOM     30  P   UNL     1      51.970  34.934  20.575  1.00  0.00     0.337 P 
ATOM     31  O   UNL     1      52.119  36.209  19.842  1.00  0.00    -0.260 OA
BRANCH  30  32
ATOM     32  O   UNL     1      50.639  34.811  21.202  1.00  0.00    -0.324 OA
ATOM     33  H   UNL     1      50.001  35.413  20.743  1.00  0.00     0.221 HD
ENDBRANCH  30  32
BRANCH  30  34
ATOM     34  O   UNL     1      52.774  34.736  21.860  1.00  0.00    -0.324 OA
ATOM     35  H   UNL     1      52.688  33.797  22.161  1.00  0.00     0.221 HD
ENDBRANCH  30  34
ENDBRANCH  25  30
ENDBRANCH   2  25
TORSDOF 11
ENDMDL
MODEL 9
REMARK VINA RESULT:    -7.539      7.473     11.109
REMARK INTER + INTRA:         -13.489
REMARK INTER:                 -11.970
REMARK INTRA:                  -1.519
REMARK UNBOUND:                -1.543
REMARK SMILES CC(C)C[C@H](C(=O)N[C@@H](Cc1ccccn1)C(=O)Nc1ccc(Cl)c(Cl)c1)P(=O)(O)O
REMARK SMILES IDX 8 1 6 2 7 3 9 5 17 6 19 7 18 8 20 10 27 11 21 12 25 13 22 14
REMARK SMILES IDX 23 15 26 16 24 17 10 18 11 19 12 20 16 21 13 22 15 23 14 24
REMARK SMILES IDX 5 25 4 26 2 27 1 28 3 29 28 30 29 31 31 32 30 34
REMARK H PARENT 8 4 19 9 31 33 30 35
ROOT
ATOM      1  N   UNL     1      49.308  33.319  17.753  1.00  0.00    -0.343 N 
ATOM      2  C   UNL     1      49.752  33.145  19.097  1.00  0.00     0.235 C 
ATOM      3  O   UNL     1      48.953  32.891  19.992  1.00  0.00    -0.274 OA
ATOM      4  H   UNL     1      49.974  33.508  16.990  1.00  0.00     0.164 HD
ENDROOT
BRANCH   1   5
ATOM      5  C   UNL     1      47.897  33.221  17.505  1.00  0.00     0.177 C 
BRANCH   5   6
ATOM      6  C   UNL     1      47.482  31.976  16.788  1.00  0.00     0.247 C 
ATOM      7  N   UNL     1      48.411  31.572  15.805  1.00  0.00    -0.324 N 
ATOM      8  O   UNL     1      46.481  31.358  16.975  1.00  0.00    -0.272 OA
ATOM      9  H   UNL     1      49.150  32.246  15.560  1.00  0.00     0.170 HD
BRANCH   7  10
ATOM     10  C   UNL     1      48.426  30.324  15.120  1.00  0.00     0.042 A 
ATOM     11  C   UNL     1      47.672  30.112  13.991  1.00  0.00     0.048 A 
ATOM     12  C   UNL     1      49.061  29.292  15.765  1.00  0.00     0.028 A 
ATOM     13  C   UNL     1      47.665  28.840  13.426  1.00  0.00     0.061 A 
ATOM     14  C   UNL     1      49.073  28.046  15.164  1.00  0.00     0.024 A 
ATOM     15  C   UNL     1      48.377  27.846  14.012  1.00  0.00     0.059 A 
ATOM     16  Cl  UNL     1      46.764  28.598  11.956  1.00  0.00    -0.083 Cl
ATOM     17  Cl  UNL     1      48.386  26.250  13.268  1.00  0.00    -0.083 Cl
ENDBRANCH   7  10
ENDBRANCH   5   6
BRANCH   5  18
ATOM     18  C   UNL     1      47.598  34.433  16.530  1.00  0.00     0.091 C 
BRANCH  18  19
ATOM     19  C   UNL     1      46.188  34.401  16.001  1.00  0.00     0.043 A 
ATOM     20  C   UNL     1      45.986  34.053  14.692  1.00  0.00     0.024 A 
ATOM     21  N   UNL     1      45.194  34.747  16.792  1.00  0.00    -0.261 NA
ATOM     22  C   UNL     1      44.673  34.066  14.169  1.00  0.00     0.003 A 
ATOM     23  C   UNL     1      43.951  34.767  16.337  1.00  0.00     0.111 A 
ATOM     24  C   UNL     1      43.656  34.430  15.029  1.00  0.00     0.020 A 
ENDBRANCH  18  19
ENDBRANCH   5  18
ENDBRANCH   1   5
BRANCH   2  25
ATOM     25  C   UNL     1      51.265  33.328  19.281  1.00  0.00     0.193 C 
BRANCH  25  26
ATOM     26  C   UNL     1      51.893  33.242  17.923  1.00  0.00     0.029 C 
BRANCH  26  27
ATOM     27  C   UNL     1      52.702  31.956  17.681  1.00  0.00    -0.016 C 
ATOM     28  C   UNL     1      53.919  31.938  18.618  1.00  0.00     0.007 C 
ATOM     29  C   UNL     1      51.881  30.671  17.853  1.00  0.00     0.007 C 
ENDBRANCH  26  27
ENDBRANCH  25  26
BRANCH  25  30
ATOM     30  P   UNL     1      51.719  34.798  20.194  1.00  0.00     0.337 P 
ATOM     31  O   UNL     1      53.115  34.676  20.664  1.00  0.00    -0.260 OA
BRANCH  30  32
ATOM     32  O   UNL     1      51.528  35.982  19.334  1.00  0.00    -0.324 OA
ATOM     33  H   UNL     1      50.648  35.925  18.884  1.00  0.00     0.221 HD
ENDBRANCH  30  32
BRANCH  30  34
ATOM     34  O   UNL     1      50.638  35.161  21.211  1.00  0.00    -0.324 OA
ATOM     35  H   UNL     1      49.745  34.998  20.816  1.00  0.00     0.221 HD
ENDBRANCH  30  34
ENDBRANCH  25  30
ENDBRANCH   2  25
TORSDOF 11
ENDMDL
MODEL 10
REMARK VINA RESULT:    -7.507      3.081      6.024
REMARK INTER + INTRA:         -13.438
REMARK INTER:                 -11.892
REMARK INTRA:                  -1.546
REMARK UNBOUND:                -1.543
REMARK SMILES CC(C)C[C@H](C(=O)N[C@@H](Cc1ccccn1)C(=O)Nc1ccc(Cl)c(Cl)c1)P(=O)(O)O
REMARK SMILES IDX 8 1 6 2 7 3 9 5 17 6 19 7 18 8 20 10 27 11 21 12 25 13 22 14
REMARK SMILES IDX 23 15 26 16 24 17 10 18 11 19 12 20 16 21 13 22 15 23 14 24
REMARK SMILES IDX 5 25 4 26 2 27 1 28 3 29 28 30 29 31 31 32 30 34
REMARK H PARENT 8 4 19 9 31 33 30 35
ROOT
ATOM      1  N   UNL     1      55.606  36.567  21.607  1.00  0.00    -0.343 N 
ATOM      2  C   UNL     1      54.617  35.754  20.980  1.00  0.00     0.235 C 
ATOM      3  O   UNL     1      54.860  35.172  19.929  1.00  0.00    -0.274 OA
ATOM      4  H   UNL     1      55.420  37.040  22.503  1.00  0.00     0.164 HD
ENDROOT
BRANCH   1   5
ATOM      5  C   UNL     1      56.872  36.702  20.941  1.00  0.00     0.177 C 
BRANCH   5   6
ATOM      6  C   UNL     1      58.011  36.036  21.644  1.00  0.00     0.247 C 
ATOM      7  N   UNL     1      58.769  35.202  20.794  1.00  0.00    -0.324 N 
ATOM      8  O   UNL     1      58.289  36.151  22.797  1.00  0.00    -0.272 OA
ATOM      9  H   UNL     1      58.368  34.995  19.868  1.00  0.00     0.170 HD
BRANCH   7  10
ATOM     10  C   UNL     1      60.033  34.619  21.092  1.00  0.00     0.042 A 
ATOM     11  C   UNL     1      61.198  35.343  21.012  1.00  0.00     0.048 A 
ATOM     12  C   UNL     1      60.044  33.255  21.252  1.00  0.00     0.028 A 
ATOM     13  C   UNL     1      62.406  34.685  21.227  1.00  0.00     0.061 A 
ATOM     14  C   UNL     1      61.252  32.630  21.504  1.00  0.00     0.024 A 
ATOM     15  C   UNL     1      62.403  33.355  21.486  1.00  0.00     0.059 A 
ATOM     16  Cl  UNL     1      63.872  35.625  21.194  1.00  0.00    -0.083 Cl
ATOM     17  Cl  UNL     1      63.936  32.541  21.790  1.00  0.00    -0.083 Cl
ENDBRANCH   7  10
ENDBRANCH   5   6
BRANCH   5  18
ATOM     18  C   UNL     1      57.156  38.259  20.980  1.00  0.00     0.091 C 
BRANCH  18  19
ATOM     19  C   UNL     1      58.002  38.709  19.818  1.00  0.00     0.043 A 
ATOM     20  C   UNL     1      58.653  39.911  19.907  1.00  0.00     0.024 A 
ATOM     21  N   UNL     1      58.061  37.963  18.735  1.00  0.00    -0.261 NA
ATOM     22  C   UNL     1      59.411  40.369  18.805  1.00  0.00     0.003 A 
ATOM     23  C   UNL     1      58.765  38.359  17.685  1.00  0.00     0.111 A 
ATOM     24  C   UNL     1      59.453  39.558  17.689  1.00  0.00     0.020 A 
ENDBRANCH  18  19
ENDBRANCH   5  18
ENDBRANCH   1   5
BRANCH   2  25
ATOM     25  C   UNL     1      53.276  35.717  21.727  1.00  0.00     0.193 C 
BRANCH  25  26
ATOM     26  C   UNL     1      53.088  37.058  22.370  1.00  0.00     0.029 C 
BRANCH  26  27
ATOM     27  C   UNL     1      52.784  36.999  23.877  1.00  0.00    -0.016 C 
ATOM     28  C   UNL     1      53.717  35.978  24.544  1.00  0.00     0.007 C 
ATOM     29  C   UNL     1      52.896  38.359  24.581  1.00  0.00     0.007 C 
ENDBRANCH  26  27
ENDBRANCH  25  26
BRANCH  25  30
ATOM     30  P   UNL     1      51.891  35.198  20.721  1.00  0.00     0.337 P 
ATOM     31  O   UNL     1      51.942  33.734  20.529  1.00  0.00    -0.260 OA
BRANCH  30  32
ATOM     32  O   UNL     1      50.635  35.627  21.366  1.00  0.00    -0.324 OA
ATOM     33  H   UNL     1      50.203  36.327  20.815  1.00  0.00     0.221 HD
ENDBRANCH  30  32
BRANCH  30  34
ATOM     34  O   UNL     1      51.752  36.090  19.487  1.00  0.00    -0.324 OA
ATOM     35  H   UNL     1      50.964  36.679  19.593  1.00  0.00     0.221 HD
ENDBRANCH  30  34
ENDBRANCH  25  30
ENDBRANCH   2  25
TORSDOF 11
ENDMDL
MODEL 11
REMARK VINA RESULT:    -7.495      7.162     10.887
REMARK INTER + INTRA:         -13.419
REMARK INTER:                 -11.713
REMARK INTRA:                  -1.706
REMARK UNBOUND:                -1.543
REMARK SMILES CC(C)C[C@H](C(=O)N[C@@H](Cc1ccccn1)C(=O)Nc1ccc(Cl)c(Cl)c1)P(=O)(O)O
REMARK SMILES IDX 8 1 6 2 7 3 9 5 17 6 19 7 18 8 20 10 27 11 21 12 25 13 22 14
REMARK SMILES IDX 23 15 26 16 24 17 10 18 11 19 12 20 16 21 13 22 15 23 14 24
REMARK SMILES IDX 5 25 4 26 2 27 1 28 3 29 28 30 29 31 31 32 30 34
REMARK H PARENT 8 4 19 9 31 33 30 35
ROOT
ATOM      1  N   UNL     1      49.687  32.808  17.778  1.00  0.00    -0.343 N 
ATOM      2  C   UNL     1      49.967  32.959  19.168  1.00  0.00     0.235 C 
ATOM      3  O   UNL     1      49.068  32.891  19.997  1.00  0.00    -0.274 OA
ATOM      4  H   UNL     1      50.440  32.838  17.074  1.00  0.00     0.164 HD
ENDROOT
BRANCH   1   5
ATOM      5  C   UNL     1      48.317  32.612  17.396  1.00  0.00     0.177 C 
BRANCH   5   6
ATOM      6  C   UNL     1      48.018  31.255  16.845  1.00  0.00     0.247 C 
ATOM      7  N   UNL     1      49.181  30.501  16.580  1.00  0.00    -0.324 N 
ATOM      8  O   UNL     1      46.935  30.810  16.621  1.00  0.00    -0.272 OA
ATOM      9  H   UNL     1      50.079  31.005  16.610  1.00  0.00     0.170 HD
BRANCH   7  10
ATOM     10  C   UNL     1      49.235  29.111  16.275  1.00  0.00     0.042 A 
ATOM     11  C   UNL     1      49.393  28.163  17.257  1.00  0.00     0.048 A 
ATOM     12  C   UNL     1      49.336  28.791  14.943  1.00  0.00     0.028 A 
ATOM     13  C   UNL     1      49.530  26.831  16.878  1.00  0.00     0.061 A 
ATOM     14  C   UNL     1      49.431  27.457  14.591  1.00  0.00     0.024 A 
ATOM     15  C   UNL     1      49.526  26.508  15.562  1.00  0.00     0.059 A 
ATOM     16  Cl  UNL     1      49.658  25.628  18.132  1.00  0.00    -0.083 Cl
ATOM     17  Cl  UNL     1      49.666  24.815  15.098  1.00  0.00    -0.083 Cl
ENDBRANCH   7  10
ENDBRANCH   5   6
BRANCH   5  18
ATOM     18  C   UNL     1      48.102  33.645  16.214  1.00  0.00     0.091 C 
BRANCH  18  19
ATOM     19  C   UNL     1      46.642  33.903  15.946  1.00  0.00     0.043 A 
ATOM     20  C   UNL     1      46.163  33.707  14.677  1.00  0.00     0.024 A 
ATOM     21  N   UNL     1      45.876  34.349  16.919  1.00  0.00    -0.261 NA
ATOM     22  C   UNL     1      44.807  33.992  14.400  1.00  0.00     0.003 A 
ATOM     23  C   UNL     1      44.600  34.622  16.696  1.00  0.00     0.111 A 
ATOM     24  C   UNL     1      44.034  34.453  15.446  1.00  0.00     0.020 A 
ENDBRANCH  18  19
ENDBRANCH   5  18
ENDBRANCH   1   5
BRANCH   2  25
ATOM     25  C   UNL     1      51.447  33.226  19.479  1.00  0.00     0.193 C 
BRANCH  25  26
ATOM     26  C   UNL     1      52.215  33.015  18.210  1.00  0.00     0.029 C 
BRANCH  26  27
ATOM     27  C   UNL     1      53.187  31.824  18.250  1.00  0.00    -0.016 C 
ATOM     28  C   UNL     1      52.741  30.769  17.226  1.00  0.00     0.007 C 
ATOM     29  C   UNL     1      54.651  32.216  18.003  1.00  0.00     0.007 C 
ENDBRANCH  26  27
ENDBRANCH  25  26
BRANCH  25  30
ATOM     30  P   UNL     1      51.758  34.807  20.256  1.00  0.00     0.337 P 
ATOM     31  O   UNL     1      53.160  34.862  20.720  1.00  0.00    -0.260 OA
BRANCH  30  32
ATOM     32  O   UNL     1      51.450  35.887  19.300  1.00  0.00    -0.324 OA
ATOM     33  H   UNL     1      52.247  36.464  19.185  1.00  0.00     0.221 HD
ENDBRANCH  30  32
BRANCH  30  34
ATOM     34  O   UNL     1      50.649  35.150  21.251  1.00  0.00    -0.324 OA
ATOM     35  H   UNL     1      50.436  34.351  21.796  1.00  0.00     0.221 HD
ENDBRANCH  30  34
ENDBRANCH  25  30
ENDBRANCH   2  25
TORSDOF 11
ENDMDL
MODEL 12
REMARK VINA RESULT:    -7.447      4.806      8.247
REMARK INTER + INTRA:         -13.344
REMARK INTER:                 -11.332
REMARK INTRA:                  -2.012
REMARK UNBOUND:                -1.543
REMARK SMILES CC(C)C[C@H](C(=O)N[C@@H](Cc1ccccn1)C(=O)Nc1ccc(Cl)c(Cl)c1)P(=O)(O)O
REMARK SMILES IDX 8 1 6 2 7 3 9 5 17 6 19 7 18 8 20 10 27 11 21 12 25 13 22 14
REMARK SMILES IDX 23 15 26 16 24 17 10 18 11 19 12 20 16 21 13 22 15 23 14 24
REMARK SMILES IDX 5 25 4 26 2 27 1 28 3 29 28 30 29 31 31 32 30 34
REMARK H PARENT 8 4 19 9 31 33 30 35
ROOT
ATOM      1  N   UNL     1      49.541  33.166  17.264  1.00  0.00    -0.343 N 
ATOM      2  C   UNL     1      48.121  33.289  17.206  1.00  0.00     0.235 C 
ATOM      3  O   UNL     1      47.445  33.217  18.226  1.00  0.00    -0.274 OA
ATOM      4  H   UNL     1      50.121  33.250  16.417  1.00  0.00     0.164 HD
ENDROOT
BRANCH   1   5
ATOM      5  C   UNL     1      50.132  32.922  18.550  1.00  0.00     0.177 C 
BRANCH   5   6
ATOM      6  C   UNL     1      50.836  34.101  19.140  1.00  0.00     0.247 C 
ATOM      7  N   UNL     1      51.850  33.737  20.052  1.00  0.00    -0.324 N 
ATOM      8  O   UNL     1      50.600  35.247  18.912  1.00  0.00    -0.272 OA
ATOM      9  H   UNL     1      51.875  32.752  20.350  1.00  0.00     0.170 HD
BRANCH   7  10
ATOM     10  C   UNL     1      52.843  34.600  20.599  1.00  0.00     0.042 A 
ATOM     11  C   UNL     1      52.545  35.505  21.589  1.00  0.00     0.048 A 
ATOM     12  C   UNL     1      54.047  34.625  19.940  1.00  0.00     0.028 A 
ATOM     13  C   UNL     1      53.542  36.379  22.012  1.00  0.00     0.061 A 
ATOM     14  C   UNL     1      55.035  35.474  20.405  1.00  0.00     0.024 A 
ATOM     15  C   UNL     1      54.763  36.330  21.426  1.00  0.00     0.059 A 
ATOM     16  Cl  UNL     1      53.177  37.474  23.316  1.00  0.00    -0.083 Cl
ATOM     17  Cl  UNL     1      56.026  37.419  21.994  1.00  0.00    -0.083 Cl
ENDBRANCH   7  10
ENDBRANCH   5   6
BRANCH   5  18
ATOM     18  C   UNL     1      51.239  31.827  18.257  1.00  0.00     0.091 C 
BRANCH  18  19
ATOM     19  C   UNL     1      50.637  30.480  17.952  1.00  0.00     0.043 A 
ATOM     20  C   UNL     1      50.764  29.480  18.879  1.00  0.00     0.024 A 
ATOM     21  N   UNL     1      50.045  30.285  16.793  1.00  0.00    -0.261 NA
ATOM     22  C   UNL     1      50.247  28.197  18.586  1.00  0.00     0.003 A 
ATOM     23  C   UNL     1      49.545  29.098  16.486  1.00  0.00     0.111 A 
ATOM     24  C   UNL     1      49.629  28.032  17.362  1.00  0.00     0.020 A 
ENDBRANCH  18  19
ENDBRANCH   5  18
ENDBRANCH   1   5
BRANCH   2  25
ATOM     25  C   UNL     1      47.572  33.486  15.786  1.00  0.00     0.193 C 
BRANCH  25  26
ATOM     26  C   UNL     1      47.644  32.160  15.092  1.00  0.00     0.029 C 
BRANCH  26  27
ATOM     27  C   UNL     1      48.118  32.236  13.631  1.00  0.00    -0.016 C 
ATOM     28  C   UNL     1      49.576  31.758  13.544  1.00  0.00     0.007 C 
ATOM     29  C   UNL     1      47.239  31.439  12.657  1.00  0.00     0.007 C 
ENDBRANCH  26  27
ENDBRANCH  25  26
BRANCH  25  30
ATOM     30  P   UNL     1      45.953  34.245  15.727  1.00  0.00     0.337 P 
ATOM     31  O   UNL     1      45.555  34.449  14.318  1.00  0.00    -0.260 OA
BRANCH  30  32
ATOM     32  O   UNL     1      44.991  33.395  16.454  1.00  0.00    -0.324 OA
ATOM     33  H   UNL     1      44.089  33.506  16.061  1.00  0.00     0.221 HD
ENDBRANCH  30  32
BRANCH  30  34
ATOM     34  O   UNL     1      45.875  35.434  16.684  1.00  0.00    -0.324 OA
ATOM     35  H   UNL     1      46.100  36.266  16.195  1.00  0.00     0.221 HD
ENDBRANCH  30  34
ENDBRANCH  25  30
ENDBRANCH   2  25
TORSDOF 11
ENDMDL
MODEL 13
REMARK VINA RESULT:    -7.248      4.407      7.409
REMARK INTER + INTRA:         -13.028
REMARK INTER:                 -11.230
REMARK INTRA:                  -1.798
REMARK UNBOUND:                -1.543
REMARK SMILES CC(C)C[C@H](C(=O)N[C@@H](Cc1ccccn1)C(=O)Nc1ccc(Cl)c(Cl)c1)P(=O)(O)O
REMARK SMILES IDX 8 1 6 2 7 3 9 5 17 6 19 7 18 8 20 10 27 11 21 12 25 13 22 14
REMARK SMILES IDX 23 15 26 16 24 17 10 18 11 19 12 20 16 21 13 22 15 23 14 24
REMARK SMILES IDX 5 25 4 26 2 27 1 28 3 29 28 30 29 31 31 32 30 34
REMARK H PARENT 8 4 19 9 31 33 30 35
ROOT
ATOM      1  N   UNL     1      49.850  33.628  17.694  1.00  0.00    -0.343 N 
ATOM      2  C   UNL     1      48.451  33.397  17.544  1.00  0.00     0.235 C 
ATOM      3  O   UNL     1      47.768  33.051  18.502  1.00  0.00    -0.274 OA
ATOM      4  H   UNL     1      50.428  33.944  16.902  1.00  0.00     0.164 HD
ENDROOT
BRANCH   1   5
ATOM      5  C   UNL     1      50.422  33.405  18.992  1.00  0.00     0.177 C 
BRANCH   5   6
ATOM      6  C   UNL     1      51.220  34.553  19.521  1.00  0.00     0.247 C 
ATOM      7  N   UNL     1      52.252  34.150  20.395  1.00  0.00    -0.324 N 
ATOM      8  O   UNL     1      51.041  35.705  19.275  1.00  0.00    -0.272 OA
ATOM      9  H   UNL     1      52.233  33.172  20.716  1.00  0.00     0.170 HD
BRANCH   7  10
ATOM     10  C   UNL     1      53.317  34.963  20.876  1.00  0.00     0.042 A 
ATOM     11  C   UNL     1      53.143  35.834  21.924  1.00  0.00     0.048 A 
ATOM     12  C   UNL     1      54.453  34.985  20.104  1.00  0.00     0.028 A 
ATOM     13  C   UNL     1      54.201  36.665  22.281  1.00  0.00     0.061 A 
ATOM     14  C   UNL     1      55.506  35.789  20.503  1.00  0.00     0.024 A 
ATOM     15  C   UNL     1      55.358  36.610  21.579  1.00  0.00     0.059 A 
ATOM     16  Cl  UNL     1      53.996  37.714  23.656  1.00  0.00    -0.083 Cl
ATOM     17  Cl  UNL     1      56.701  37.641  22.062  1.00  0.00    -0.083 Cl
ENDBRANCH   7  10
ENDBRANCH   5   6
BRANCH   5  18
ATOM     18  C   UNL     1      51.437  32.210  18.759  1.00  0.00     0.091 C 
BRANCH  18  19
ATOM     19  C   UNL     1      52.137  32.315  17.430  1.00  0.00     0.043 A 
ATOM     20  C   UNL     1      51.772  31.456  16.426  1.00  0.00     0.024 A 
ATOM     21  N   UNL     1      53.107  33.192  17.278  1.00  0.00    -0.261 NA
ATOM     22  C   UNL     1      52.454  31.510  15.190  1.00  0.00     0.003 A 
ATOM     23  C   UNL     1      53.765  33.273  16.132  1.00  0.00     0.111 A 
ATOM     24  C   UNL     1      53.462  32.446  15.067  1.00  0.00     0.020 A 
ENDBRANCH  18  19
ENDBRANCH   5  18
ENDBRANCH   1   5
BRANCH   2  25
ATOM     25  C   UNL     1      47.937  33.600  16.112  1.00  0.00     0.193 C 
BRANCH  25  26
ATOM     26  C   UNL     1      48.222  32.340  15.353  1.00  0.00     0.029 C 
BRANCH  26  27
ATOM     27  C   UNL     1      47.517  31.092  15.911  1.00  0.00    -0.016 C 
ATOM     28  C   UNL     1      46.571  30.522  14.842  1.00  0.00     0.007 C 
ATOM     29  C   UNL     1      48.484  30.003  16.398  1.00  0.00     0.007 C 
ENDBRANCH  26  27
ENDBRANCH  25  26
BRANCH  25  30
ATOM     30  P   UNL     1      46.231  34.130  16.014  1.00  0.00     0.337 P 
ATOM     31  O   UNL     1      45.701  33.842  14.665  1.00  0.00    -0.260 OA
BRANCH  30  32
ATOM     32  O   UNL     1      45.451  33.455  17.069  1.00  0.00    -0.324 OA
ATOM     33  H   UNL     1      45.169  32.561  16.750  1.00  0.00     0.221 HD
ENDBRANCH  30  32
BRANCH  30  34
ATOM     34  O   UNL     1      46.070  35.544  16.571  1.00  0.00    -0.324 OA
ATOM     35  H   UNL     1      46.882  36.073  16.370  1.00  0.00     0.221 HD
ENDBRANCH  30  34
ENDBRANCH  25  30
ENDBRANCH   2  25
TORSDOF 11
ENDMDL
MODEL 14
REMARK VINA RESULT:    -7.237      3.170      6.051
REMARK INTER + INTRA:         -13.010
REMARK INTER:                 -11.920
REMARK INTRA:                  -1.090
REMARK UNBOUND:                -1.543
REMARK SMILES CC(C)C[C@H](C(=O)N[C@@H](Cc1ccccn1)C(=O)Nc1ccc(Cl)c(Cl)c1)P(=O)(O)O
REMARK SMILES IDX 8 1 6 2 7 3 9 5 17 6 19 7 18 8 20 10 27 11 21 12 25 13 22 14
REMARK SMILES IDX 23 15 26 16 24 17 10 18 11 19 12 20 16 21 13 22 15 23 14 24
REMARK SMILES IDX 5 25 4 26 2 27 1 28 3 29 28 30 29 31 31 32 30 34
REMARK H PARENT 8 4 19 9 31 33 30 35
ROOT
ATOM      1  N   UNL     1      56.111  36.419  21.748  1.00  0.00    -0.343 N 
ATOM      2  C   UNL     1      55.017  37.245  22.145  1.00  0.00     0.235 C 
ATOM      3  O   UNL     1      55.117  38.466  22.127  1.00  0.00    -0.274 OA
ATOM      4  H   UNL     1      56.029  35.392  21.736  1.00  0.00     0.164 HD
ENDROOT
BRANCH   1   5
ATOM      5  C   UNL     1      57.330  37.075  21.366  1.00  0.00     0.177 C 
BRANCH   5   6
ATOM      6  C   UNL     1      57.754  36.815  19.956  1.00  0.00     0.247 C 
ATOM      7  N   UNL     1      57.930  37.999  19.208  1.00  0.00    -0.324 N 
ATOM      8  O   UNL     1      57.926  35.745  19.460  1.00  0.00    -0.272 OA
ATOM      9  H   UNL     1      57.582  38.871  19.630  1.00  0.00     0.170 HD
BRANCH   7  10
ATOM     10  C   UNL     1      58.543  38.104  17.927  1.00  0.00     0.042 A 
ATOM     11  C   UNL     1      58.433  37.104  16.990  1.00  0.00     0.048 A 
ATOM     12  C   UNL     1      59.416  39.151  17.762  1.00  0.00     0.028 A 
ATOM     13  C   UNL     1      59.134  37.234  15.795  1.00  0.00     0.061 A 
ATOM     14  C   UNL     1      60.070  39.280  16.550  1.00  0.00     0.024 A 
ATOM     15  C   UNL     1      59.917  38.322  15.595  1.00  0.00     0.059 A 
ATOM     16  Cl  UNL     1      58.932  35.997  14.585  1.00  0.00    -0.083 Cl
ATOM     17  Cl  UNL     1      60.771  38.490  14.064  1.00  0.00    -0.083 Cl
ENDBRANCH   7  10
ENDBRANCH   5   6
BRANCH   5  18
ATOM     18  C   UNL     1      58.425  36.415  22.302  1.00  0.00     0.091 C 
BRANCH  18  19
ATOM     19  C   UNL     1      59.818  36.865  21.948  1.00  0.00     0.043 A 
ATOM     20  C   UNL     1      60.815  35.927  21.894  1.00  0.00     0.024 A 
ATOM     21  N   UNL     1      60.051  38.144  21.743  1.00  0.00    -0.261 NA
ATOM     22  C   UNL     1      62.137  36.341  21.611  1.00  0.00     0.003 A 
ATOM     23  C   UNL     1      61.276  38.567  21.472  1.00  0.00     0.111 A 
ATOM     24  C   UNL     1      62.342  37.690  21.397  1.00  0.00     0.020 A 
ENDBRANCH  18  19
ENDBRANCH   5  18
ENDBRANCH   1   5
BRANCH   2  25
ATOM     25  C   UNL     1      53.777  36.460  22.597  1.00  0.00     0.193 C 
BRANCH  25  26
ATOM     26  C   UNL     1      52.889  37.416  23.333  1.00  0.00     0.029 C 
BRANCH  26  27
ATOM     27  C   UNL     1      52.886  37.230  24.859  1.00  0.00    -0.016 C 
ATOM     28  C   UNL     1      53.678  35.963  25.218  1.00  0.00     0.007 C 
ATOM     29  C   UNL     1      53.442  38.438  25.627  1.00  0.00     0.007 C 
ENDBRANCH  26  27
ENDBRANCH  25  26
BRANCH  25  30
ATOM     30  P   UNL     1      52.951  35.574  21.280  1.00  0.00     0.337 P 
ATOM     31  O   UNL     1      52.322  36.540  20.355  1.00  0.00    -0.260 OA
BRANCH  30  32
ATOM     32  O   UNL     1      53.926  34.706  20.593  1.00  0.00    -0.324 OA
ATOM     33  H   UNL     1      54.301  35.185  19.811  1.00  0.00     0.221 HD
ENDBRANCH  30  32
BRANCH  30  34
ATOM     34  O   UNL     1      52.093  34.442  21.843  1.00  0.00    -0.324 OA
ATOM     35  H   UNL     1      52.545  33.575  21.683  1.00  0.00     0.221 HD
ENDBRANCH  30  34
ENDBRANCH  25  30
ENDBRANCH   2  25
TORSDOF 11
ENDMDL
MODEL 15
REMARK VINA RESULT:    -7.126      6.623     10.884
REMARK INTER + INTRA:         -12.835
REMARK INTER:                 -11.586
REMARK INTRA:                  -1.249
REMARK UNBOUND:                -1.543
REMARK SMILES CC(C)C[C@H](C(=O)N[C@@H](Cc1ccccn1)C(=O)Nc1ccc(Cl)c(Cl)c1)P(=O)(O)O
REMARK SMILES IDX 8 1 6 2 7 3 9 5 17 6 19 7 18 8 20 10 27 11 21 12 25 13 22 14
REMARK SMILES IDX 23 15 26 16 24 17 10 18 11 19 12 20 16 21 13 22 15 23 14 24
REMARK SMILES IDX 5 25 4 26 2 27 1 28 3 29 28 30 29 31 31 32 30 34
REMARK H PARENT 8 4 19 9 31 33 30 35
ROOT
ATOM      1  N   UNL     1      50.362  30.432  18.549  1.00  0.00    -0.343 N 
ATOM      2  C   UNL     1      51.575  31.171  18.422  1.00  0.00     0.235 C 
ATOM      3  O   UNL     1      52.272  31.063  17.420  1.00  0.00    -0.274 OA
ATOM      4  H   UNL     1      49.756  30.535  19.376  1.00  0.00     0.164 HD
ENDROOT
BRANCH   1   5
ATOM      5  C   UNL     1      50.018  29.538  17.478  1.00  0.00     0.177 C 
BRANCH   5   6
ATOM      6  C   UNL     1      48.853  29.984  16.654  1.00  0.00     0.247 C 
ATOM      7  N   UNL     1      48.493  31.328  16.891  1.00  0.00    -0.324 N 
ATOM      8  O   UNL     1      48.248  29.316  15.874  1.00  0.00    -0.272 OA
ATOM      9  H   UNL     1      48.924  31.787  17.706  1.00  0.00     0.170 HD
BRANCH   7  10
ATOM     10  C   UNL     1      47.593  32.111  16.114  1.00  0.00     0.042 A 
ATOM     11  C   UNL     1      46.400  32.560  16.627  1.00  0.00     0.048 A 
ATOM     12  C   UNL     1      47.882  32.207  14.775  1.00  0.00     0.028 A 
ATOM     13  C   UNL     1      45.528  33.241  15.783  1.00  0.00     0.061 A 
ATOM     14  C   UNL     1      47.019  32.923  13.964  1.00  0.00     0.024 A 
ATOM     15  C   UNL     1      45.865  33.423  14.483  1.00  0.00     0.059 A 
ATOM     16  Cl  UNL     1      44.051  33.869  16.459  1.00  0.00    -0.083 Cl
ATOM     17  Cl  UNL     1      44.768  34.316  13.434  1.00  0.00    -0.083 Cl
ENDBRANCH   7  10
ENDBRANCH   5   6
BRANCH   5  18
ATOM     18  C   UNL     1      49.573  28.211  18.221  1.00  0.00     0.091 C 
BRANCH  18  19
ATOM     19  C   UNL     1      50.753  27.397  18.682  1.00  0.00     0.043 A 
ATOM     20  C   UNL     1      50.620  26.632  19.811  1.00  0.00     0.024 A 
ATOM     21  N   UNL     1      51.888  27.473  18.021  1.00  0.00    -0.261 NA
ATOM     22  C   UNL     1      51.734  25.900  20.283  1.00  0.00     0.003 A 
ATOM     23  C   UNL     1      52.951  26.799  18.432  1.00  0.00     0.111 A 
ATOM     24  C   UNL     1      52.906  26.001  19.560  1.00  0.00     0.020 A 
ENDBRANCH  18  19
ENDBRANCH   5  18
ENDBRANCH   1   5
BRANCH   2  25
ATOM     25  C   UNL     1      51.896  32.053  19.638  1.00  0.00     0.193 C 
BRANCH  25  26
ATOM     26  C   UNL     1      53.324  32.486  19.510  1.00  0.00     0.029 C 
BRANCH  26  27
ATOM     27  C   UNL     1      53.508  33.890  18.908  1.00  0.00    -0.016 C 
ATOM     28  C   UNL     1      54.368  34.740  19.856  1.00  0.00     0.007 C 
ATOM     29  C   UNL     1      54.122  33.881  17.501  1.00  0.00     0.007 C 
ENDBRANCH  26  27
ENDBRANCH  25  26
BRANCH  25  30
ATOM     30  P   UNL     1      50.751  33.405  19.885  1.00  0.00     0.337 P 
ATOM     31  O   UNL     1      50.619  34.175  18.630  1.00  0.00    -0.260 OA
BRANCH  30  32
ATOM     32  O   UNL     1      49.455  32.867  20.341  1.00  0.00    -0.324 OA
ATOM     33  H   UNL     1      48.988  32.440  19.579  1.00  0.00     0.221 HD
ENDBRANCH  30  32
BRANCH  30  34
ATOM     34  O   UNL     1      51.075  34.162  21.172  1.00  0.00    -0.324 OA
ATOM     35  H   UNL     1      50.236  34.500  21.577  1.00  0.00     0.221 HD
ENDBRANCH  30  34
ENDBRANCH  25  30
ENDBRANCH   2  25
TORSDOF 11
ENDMDL
MODEL 16
REMARK VINA RESULT:    -7.056      3.518      7.315
REMARK INTER + INTRA:         -12.724
REMARK INTER:                 -11.146
REMARK INTRA:                  -1.577
REMARK UNBOUND:                -1.543
REMARK SMILES CC(C)C[C@H](C(=O)N[C@@H](Cc1ccccn1)C(=O)Nc1ccc(Cl)c(Cl)c1)P(=O)(O)O
REMARK SMILES IDX 8 1 6 2 7 3 9 5 17 6 19 7 18 8 20 10 27 11 21 12 25 13 22 14
REMARK SMILES IDX 23 15 26 16 24 17 10 18 11 19 12 20 16 21 13 22 15 23 14 24
REMARK SMILES IDX 5 25 4 26 2 27 1 28 3 29 28 30 29 31 31 32 30 34
REMARK H PARENT 8 4 19 9 31 33 30 35
ROOT
ATOM      1  N   UNL     1      55.585  36.234  21.851  1.00  0.00    -0.343 N 
ATOM      2  C   UNL     1      55.429  37.541  22.402  1.00  0.00     0.235 C 
ATOM      3  O   UNL     1      55.795  38.530  21.778  1.00  0.00    -0.274 OA
ATOM      4  H   UNL     1      55.258  35.398  22.356  1.00  0.00     0.164 HD
ENDROOT
BRANCH   1   5
ATOM      5  C   UNL     1      56.214  36.130  20.564  1.00  0.00     0.177 C 
BRANCH   5   6
ATOM      6  C   UNL     1      55.619  35.090  19.670  1.00  0.00     0.247 C 
ATOM      7  N   UNL     1      54.373  34.614  20.132  1.00  0.00    -0.324 N 
ATOM      8  O   UNL     1      56.105  34.663  18.669  1.00  0.00    -0.272 OA
ATOM      9  H   UNL     1      54.103  34.877  21.090  1.00  0.00     0.170 HD
BRANCH   7  10
ATOM     10  C   UNL     1      53.455  33.807  19.403  1.00  0.00     0.042 A 
ATOM     11  C   UNL     1      53.794  32.552  18.957  1.00  0.00     0.048 A 
ATOM     12  C   UNL     1      52.303  34.430  18.989  1.00  0.00     0.028 A 
ATOM     13  C   UNL     1      52.879  31.856  18.172  1.00  0.00     0.061 A 
ATOM     14  C   UNL     1      51.392  33.704  18.243  1.00  0.00     0.024 A 
ATOM     15  C   UNL     1      51.698  32.438  17.851  1.00  0.00     0.059 A 
ATOM     16  Cl  UNL     1      53.287  30.239  17.672  1.00  0.00    -0.083 Cl
ATOM     17  Cl  UNL     1      50.536  31.533  16.885  1.00  0.00    -0.083 Cl
ENDBRANCH   7  10
ENDBRANCH   5   6
BRANCH   5  18
ATOM     18  C   UNL     1      57.688  35.655  20.901  1.00  0.00     0.091 C 
BRANCH  18  19
ATOM     19  C   UNL     1      58.663  36.803  20.914  1.00  0.00     0.043 A 
ATOM     20  C   UNL     1      59.541  36.905  21.961  1.00  0.00     0.024 A 
ATOM     21  N   UNL     1      58.621  37.697  19.950  1.00  0.00    -0.261 NA
ATOM     22  C   UNL     1      60.429  38.004  22.012  1.00  0.00     0.003 A 
ATOM     23  C   UNL     1      59.441  38.737  19.962  1.00  0.00     0.111 A 
ATOM     24  C   UNL     1      60.359  38.919  20.980  1.00  0.00     0.020 A 
ENDBRANCH  18  19
ENDBRANCH   5  18
ENDBRANCH   1   5
BRANCH   2  25
ATOM     25  C   UNL     1      54.805  37.554  23.805  1.00  0.00     0.193 C 
BRANCH  25  26
ATOM     26  C   UNL     1      53.326  37.379  23.636  1.00  0.00     0.029 C 
BRANCH  26  27
ATOM     27  C   UNL     1      52.478  38.122  24.682  1.00  0.00    -0.016 C 
ATOM     28  C   UNL     1      51.894  37.107  25.676  1.00  0.00     0.007 C 
ATOM     29  C   UNL     1      53.248  39.217  25.433  1.00  0.00     0.007 C 
ENDBRANCH  26  27
ENDBRANCH  25  26
BRANCH  25  30
ATOM     30  P   UNL     1      55.543  36.391  24.946  1.00  0.00     0.337 P 
ATOM     31  O   UNL     1      55.582  36.985  26.299  1.00  0.00    -0.260 OA
BRANCH  30  32
ATOM     32  O   UNL     1      54.778  35.130  24.918  1.00  0.00    -0.324 OA
ATOM     33  H   UNL     1      55.275  34.431  25.412  1.00  0.00     0.221 HD
ENDBRANCH  30  32
BRANCH  30  34
ATOM     34  O   UNL     1      56.834  35.810  24.369  1.00  0.00    -0.324 OA
ATOM     35  H   UNL     1      57.439  36.549  24.105  1.00  0.00     0.221 HD
ENDBRANCH  30  34
ENDBRANCH  25  30
ENDBRANCH   2  25
TORSDOF 11
ENDMDL
MODEL 17
REMARK VINA RESULT:    -7.008      3.893      6.542
REMARK INTER + INTRA:         -12.648
REMARK INTER:                 -10.443
REMARK INTRA:                  -2.205
REMARK UNBOUND:                -1.543
REMARK SMILES CC(C)C[C@H](C(=O)N[C@@H](Cc1ccccn1)C(=O)Nc1ccc(Cl)c(Cl)c1)P(=O)(O)O
REMARK SMILES IDX 8 1 6 2 7 3 9 5 17 6 19 7 18 8 20 10 27 11 21 12 25 13 22 14
REMARK SMILES IDX 23 15 26 16 24 17 10 18 11 19 12 20 16 21 13 22 15 23 14 24
REMARK SMILES IDX 5 25 4 26 2 27 1 28 3 29 28 30 29 31 31 32 30 34
REMARK H PARENT 8 4 19 9 31 33 30 35
ROOT
ATOM      1  N   UNL     1      54.211  34.007  18.057  1.00  0.00    -0.343 N 
ATOM      2  C   UNL     1      53.528  33.120  18.941  1.00  0.00     0.235 C 
ATOM      3  O   UNL     1      54.062  32.084  19.322  1.00  0.00    -0.274 OA
ATOM      4  H   UNL     1      53.782  34.892  17.750  1.00  0.00     0.164 HD
ENDROOT
BRANCH   1   5
ATOM      5  C   UNL     1      55.520  33.619  17.611  1.00  0.00     0.177 C 
BRANCH   5   6
ATOM      6  C   UNL     1      56.618  34.531  18.055  1.00  0.00     0.247 C 
ATOM      7  N   UNL     1      56.338  35.174  19.280  1.00  0.00    -0.324 N 
ATOM      8  O   UNL     1      57.635  34.742  17.471  1.00  0.00    -0.272 OA
ATOM      9  H   UNL     1      55.373  35.101  19.632  1.00  0.00     0.170 HD
BRANCH   7  10
ATOM     10  C   UNL     1      57.259  35.912  20.076  1.00  0.00     0.042 A 
ATOM     11  C   UNL     1      57.382  37.276  19.959  1.00  0.00     0.048 A 
ATOM     12  C   UNL     1      58.157  35.169  20.801  1.00  0.00     0.028 A 
ATOM     13  C   UNL     1      58.366  37.921  20.702  1.00  0.00     0.061 A 
ATOM     14  C   UNL     1      59.101  35.835  21.563  1.00  0.00     0.024 A 
ATOM     15  C   UNL     1      59.186  37.191  21.497  1.00  0.00     0.059 A 
ATOM     16  Cl  UNL     1      58.467  39.657  20.603  1.00  0.00    -0.083 Cl
ATOM     17  Cl  UNL     1      60.406  38.023  22.457  1.00  0.00    -0.083 Cl
ENDBRANCH   7  10
ENDBRANCH   5   6
BRANCH   5  18
ATOM     18  C   UNL     1      55.434  33.738  16.034  1.00  0.00     0.091 C 
BRANCH  18  19
ATOM     19  C   UNL     1      54.426  32.784  15.448  1.00  0.00     0.043 A 
ATOM     20  C   UNL     1      53.586  33.239  14.466  1.00  0.00     0.024 A 
ATOM     21  N   UNL     1      54.349  31.557  15.919  1.00  0.00    -0.261 NA
ATOM     22  C   UNL     1      52.603  32.369  13.941  1.00  0.00     0.003 A 
ATOM     23  C   UNL     1      53.443  30.714  15.448  1.00  0.00     0.111 A 
ATOM     24  C   UNL     1      52.555  31.089  14.457  1.00  0.00     0.020 A 
ENDBRANCH  18  19
ENDBRANCH   5  18
ENDBRANCH   1   5
BRANCH   2  25
ATOM     25  C   UNL     1      52.113  33.582  19.316  1.00  0.00     0.193 C 
BRANCH  25  26
ATOM     26  C   UNL     1      51.456  32.454  20.051  1.00  0.00     0.029 C 
BRANCH  26  27
ATOM     27  C   UNL     1      50.277  31.812  19.300  1.00  0.00    -0.016 C 
ATOM     28  C   UNL     1      49.179  32.865  19.083  1.00  0.00     0.007 C 
ATOM     29  C   UNL     1      50.673  31.175  17.961  1.00  0.00     0.007 C 
ENDBRANCH  26  27
ENDBRANCH  25  26
BRANCH  25  30
ATOM     30  P   UNL     1      52.060  35.142  20.191  1.00  0.00     0.337 P 
ATOM     31  O   UNL     1      53.421  35.501  20.642  1.00  0.00    -0.260 OA
BRANCH  30  32
ATOM     32  O   UNL     1      51.480  36.174  19.310  1.00  0.00    -0.324 OA
ATOM     33  H   UNL     1      50.879  35.744  18.650  1.00  0.00     0.221 HD
ENDBRANCH  30  32
BRANCH  30  34
ATOM     34  O   UNL     1      50.928  35.149  21.218  1.00  0.00    -0.324 OA
ATOM     35  H   UNL     1      50.883  36.038  21.653  1.00  0.00     0.221 HD
ENDBRANCH  30  34
ENDBRANCH  25  30
ENDBRANCH   2  25
TORSDOF 11
ENDMDL
MODEL 18
REMARK VINA RESULT:    -6.991      3.822      6.820
REMARK INTER + INTRA:         -12.620
REMARK INTER:                 -10.514
REMARK INTRA:                  -2.106
REMARK UNBOUND:                -1.543
REMARK SMILES CC(C)C[C@H](C(=O)N[C@@H](Cc1ccccn1)C(=O)Nc1ccc(Cl)c(Cl)c1)P(=O)(O)O
REMARK SMILES IDX 8 1 6 2 7 3 9 5 17 6 19 7 18 8 20 10 27 11 21 12 25 13 22 14
REMARK SMILES IDX 23 15 26 16 24 17 10 18 11 19 12 20 16 21 13 22 15 23 14 24
REMARK SMILES IDX 5 25 4 26 2 27 1 28 3 29 28 30 29 31 31 32 30 34
REMARK H PARENT 8 4 19 9 31 33 30 35
ROOT
ATOM      1  N   UNL     1      56.151  37.268  21.340  1.00  0.00    -0.343 N 
ATOM      2  C   UNL     1      56.020  36.869  22.703  1.00  0.00     0.235 C 
ATOM      3  O   UNL     1      57.008  36.571  23.365  1.00  0.00    -0.274 OA
ATOM      4  H   UNL     1      55.329  37.545  20.783  1.00  0.00     0.164 HD
ENDROOT
BRANCH   1   5
ATOM      5  C   UNL     1      57.471  37.272  20.775  1.00  0.00     0.177 C 
BRANCH   5   6
ATOM      6  C   UNL     1      58.060  38.634  20.593  1.00  0.00     0.247 C 
ATOM      7  N   UNL     1      59.464  38.651  20.737  1.00  0.00    -0.324 N 
ATOM      8  O   UNL     1      57.456  39.635  20.362  1.00  0.00    -0.272 OA
ATOM      9  H   UNL     1      59.901  37.802  21.124  1.00  0.00     0.170 HD
BRANCH   7  10
ATOM     10  C   UNL     1      60.335  39.726  20.401  1.00  0.00     0.042 A 
ATOM     11  C   UNL     1      60.554  40.773  21.263  1.00  0.00     0.048 A 
ATOM     12  C   UNL     1      60.767  39.763  19.098  1.00  0.00     0.028 A 
ATOM     13  C   UNL     1      61.345  41.834  20.831  1.00  0.00     0.061 A 
ATOM     14  C   UNL     1      61.585  40.808  18.705  1.00  0.00     0.024 A 
ATOM     15  C   UNL     1      61.855  41.818  19.576  1.00  0.00     0.059 A 
ATOM     16  Cl  UNL     1      61.676  43.123  21.955  1.00  0.00    -0.083 Cl
ATOM     17  Cl  UNL     1      62.881  43.151  19.054  1.00  0.00    -0.083 Cl
ENDBRANCH   7  10
ENDBRANCH   5   6
BRANCH   5  18
ATOM     18  C   UNL     1      57.266  36.664  19.327  1.00  0.00     0.091 C 
BRANCH  18  19
ATOM     19  C   UNL     1      58.541  36.666  18.526  1.00  0.00     0.043 A 
ATOM     20  C   UNL     1      58.546  37.286  17.304  1.00  0.00     0.024 A 
ATOM     21  N   UNL     1      59.599  36.039  18.994  1.00  0.00    -0.261 NA
ATOM     22  C   UNL     1      59.722  37.255  16.520  1.00  0.00     0.003 A 
ATOM     23  C   UNL     1      60.718  35.992  18.289  1.00  0.00     0.111 A 
ATOM     24  C   UNL     1      60.813  36.592  17.046  1.00  0.00     0.020 A 
ENDBRANCH  18  19
ENDBRANCH   5  18
ENDBRANCH   1   5
BRANCH   2  25
ATOM     25  C   UNL     1      54.569  36.834  23.205  1.00  0.00     0.193 C 
BRANCH  25  26
ATOM     26  C   UNL     1      54.432  37.904  24.245  1.00  0.00     0.029 C 
BRANCH  26  27
ATOM     27  C   UNL     1      53.753  37.439  25.544  1.00  0.00    -0.016 C 
ATOM     28  C   UNL     1      52.324  38.000  25.600  1.00  0.00     0.007 C 
ATOM     29  C   UNL     1      53.731  35.914  25.716  1.00  0.00     0.007 C 
ENDBRANCH  26  27
ENDBRANCH  25  26
BRANCH  25  30
ATOM     30  P   UNL     1      53.343  36.927  21.906  1.00  0.00     0.337 P 
ATOM     31  O   UNL     1      53.241  38.321  21.423  1.00  0.00    -0.260 OA
BRANCH  30  32
ATOM     32  O   UNL     1      53.708  35.993  20.824  1.00  0.00    -0.324 OA
ATOM     33  H   UNL     1      54.316  36.447  20.187  1.00  0.00     0.221 HD
ENDBRANCH  30  32
BRANCH  30  34
ATOM     34  O   UNL     1      52.060  36.205  22.318  1.00  0.00    -0.324 OA
ATOM     35  H   UNL     1      52.156  35.864  23.243  1.00  0.00     0.221 HD
ENDBRANCH  30  34
ENDBRANCH  25  30
ENDBRANCH   2  25
TORSDOF 11
ENDMDL
MODEL 19
REMARK VINA RESULT:    -6.966      4.033      6.926
REMARK INTER + INTRA:         -12.581
REMARK INTER:                 -11.133
REMARK INTRA:                  -1.448
REMARK UNBOUND:                -1.543
REMARK SMILES CC(C)C[C@H](C(=O)N[C@@H](Cc1ccccn1)C(=O)Nc1ccc(Cl)c(Cl)c1)P(=O)(O)O
REMARK SMILES IDX 8 1 6 2 7 3 9 5 17 6 19 7 18 8 20 10 27 11 21 12 25 13 22 14
REMARK SMILES IDX 23 15 26 16 24 17 10 18 11 19 12 20 16 21 13 22 15 23 14 24
REMARK SMILES IDX 5 25 4 26 2 27 1 28 3 29 28 30 29 31 31 32 30 34
REMARK H PARENT 8 4 19 9 31 33 30 35
ROOT
ATOM      1  N   UNL     1      51.463  33.433  18.622  1.00  0.00    -0.343 N 
ATOM      2  C   UNL     1      50.457  32.428  18.724  1.00  0.00     0.235 C 
ATOM      3  O   UNL     1      50.424  31.672  19.689  1.00  0.00    -0.274 OA
ATOM      4  H   UNL     1      51.485  34.090  17.829  1.00  0.00     0.164 HD
ENDROOT
BRANCH   1   5
ATOM      5  C   UNL     1      52.445  33.496  19.669  1.00  0.00     0.177 C 
BRANCH   5   6
ATOM      6  C   UNL     1      52.167  34.528  20.714  1.00  0.00     0.247 C 
ATOM      7  N   UNL     1      53.248  34.716  21.602  1.00  0.00    -0.324 N 
ATOM      8  O   UNL     1      51.156  35.146  20.840  1.00  0.00    -0.272 OA
ATOM      9  H   UNL     1      54.009  34.024  21.561  1.00  0.00     0.170 HD
BRANCH   7  10
ATOM     10  C   UNL     1      53.389  35.771  22.549  1.00  0.00     0.042 A 
ATOM     11  C   UNL     1      53.677  35.520  23.869  1.00  0.00     0.048 A 
ATOM     12  C   UNL     1      53.012  37.019  22.119  1.00  0.00     0.028 A 
ATOM     13  C   UNL     1      53.710  36.592  24.756  1.00  0.00     0.061 A 
ATOM     14  C   UNL     1      53.091  38.075  23.009  1.00  0.00     0.024 A 
ATOM     15  C   UNL     1      53.436  37.840  24.305  1.00  0.00     0.059 A 
ATOM     16  Cl  UNL     1      54.146  36.276  26.412  1.00  0.00    -0.083 Cl
ATOM     17  Cl  UNL     1      53.514  39.192  25.431  1.00  0.00    -0.083 Cl
ENDBRANCH   7  10
ENDBRANCH   5   6
BRANCH   5  18
ATOM     18  C   UNL     1      53.767  33.945  18.921  1.00  0.00     0.091 C 
BRANCH  18  19
ATOM     19  C   UNL     1      54.222  32.925  17.911  1.00  0.00     0.043 A 
ATOM     20  C   UNL     1      54.502  31.655  18.343  1.00  0.00     0.024 A 
ATOM     21  N   UNL     1      54.380  33.285  16.655  1.00  0.00    -0.261 NA
ATOM     22  C   UNL     1      54.976  30.700  17.415  1.00  0.00     0.003 A 
ATOM     23  C   UNL     1      54.819  32.416  15.758  1.00  0.00     0.111 A 
ATOM     24  C   UNL     1      55.125  31.113  16.106  1.00  0.00     0.020 A 
ENDBRANCH  18  19
ENDBRANCH   5  18
ENDBRANCH   1   5
BRANCH   2  25
ATOM     25  C   UNL     1      49.489  32.394  17.533  1.00  0.00     0.193 C 
BRANCH  25  26
ATOM     26  C   UNL     1      48.825  33.735  17.460  1.00  0.00     0.029 C 
BRANCH  26  27
ATOM     27  C   UNL     1      47.288  33.680  17.427  1.00  0.00    -0.016 C 
ATOM     28  C   UNL     1      46.769  34.618  16.326  1.00  0.00     0.007 C 
ATOM     29  C   UNL     1      46.727  32.265  17.226  1.00  0.00     0.007 C 
ENDBRANCH  26  27
ENDBRANCH  25  26
BRANCH  25  30
ATOM     30  P   UNL     1      50.239  31.874  15.995  1.00  0.00     0.337 P 
ATOM     31  O   UNL     1      49.301  32.124  14.879  1.00  0.00    -0.260 OA
BRANCH  30  32
ATOM     32  O   UNL     1      51.517  32.588  15.812  1.00  0.00    -0.324 OA
ATOM     33  H   UNL     1      52.235  32.108  16.296  1.00  0.00     0.221 HD
ENDBRANCH  30  32
BRANCH  30  34
ATOM     34  O   UNL     1      50.849  30.480  16.133  1.00  0.00    -0.324 OA
ATOM     35  H   UNL     1      50.287  29.931  16.735  1.00  0.00     0.221 HD
ENDBRANCH  30  34
ENDBRANCH  25  30
ENDBRANCH   2  25
TORSDOF 11
ENDMDL
MODEL 20
REMARK VINA RESULT:    -6.929      3.665      6.209
REMARK INTER + INTRA:         -12.523
REMARK INTER:                 -11.729
REMARK INTRA:                  -0.794
REMARK UNBOUND:                -1.543
REMARK SMILES CC(C)C[C@H](C(=O)N[C@@H](Cc1ccccn1)C(=O)Nc1ccc(Cl)c(Cl)c1)P(=O)(O)O
REMARK SMILES IDX 8 1 6 2 7 3 9 5 17 6 19 7 18 8 20 10 27 11 21 12 25 13 22 14
REMARK SMILES IDX 23 15 26 16 24 17 10 18 11 19 12 20 16 21 13 22 15 23 14 24
REMARK SMILES IDX 5 25 4 26 2 27 1 28 3 29 28 30 29 31 31 32 30 34
REMARK H PARENT 8 4 19 9 31 33 30 35
ROOT
ATOM      1  N   UNL     1      56.217  36.337  21.355  1.00  0.00    -0.343 N 
ATOM      2  C   UNL     1      55.176  37.241  21.722  1.00  0.00     0.235 C 
ATOM      3  O   UNL     1      55.256  38.432  21.446  1.00  0.00    -0.274 OA
ATOM      4  H   UNL     1      56.148  35.330  21.559  1.00  0.00     0.164 HD
ENDROOT
BRANCH   1   5
ATOM      5  C   UNL     1      57.364  36.886  20.688  1.00  0.00     0.177 C 
BRANCH   5   6
ATOM      6  C   UNL     1      58.441  35.891  20.394  1.00  0.00     0.247 C 
ATOM      7  N   UNL     1      59.204  35.553  21.533  1.00  0.00    -0.324 N 
ATOM      8  O   UNL     1      58.683  35.412  19.330  1.00  0.00    -0.272 OA
ATOM      9  H   UNL     1      59.073  36.139  22.369  1.00  0.00     0.170 HD
BRANCH   7  10
ATOM     10  C   UNL     1      60.135  34.481  21.637  1.00  0.00     0.042 A 
ATOM     11  C   UNL     1      59.817  33.207  21.232  1.00  0.00     0.048 A 
ATOM     12  C   UNL     1      61.276  34.744  22.354  1.00  0.00     0.028 A 
ATOM     13  C   UNL     1      60.742  32.191  21.449  1.00  0.00     0.061 A 
ATOM     14  C   UNL     1      62.199  33.727  22.521  1.00  0.00     0.024 A 
ATOM     15  C   UNL     1      61.914  32.476  22.068  1.00  0.00     0.059 A 
ATOM     16  Cl  UNL     1      60.361  30.594  20.868  1.00  0.00    -0.083 Cl
ATOM     17  Cl  UNL     1      63.090  31.187  22.305  1.00  0.00    -0.083 Cl
ENDBRANCH   7  10
ENDBRANCH   5   6
BRANCH   5  18
ATOM     18  C   UNL     1      57.961  37.909  21.741  1.00  0.00     0.091 C 
BRANCH  18  19
ATOM     19  C   UNL     1      58.727  39.022  21.077  1.00  0.00     0.043 A 
ATOM     20  C   UNL     1      60.093  39.035  21.187  1.00  0.00     0.024 A 
ATOM     21  N   UNL     1      58.070  39.974  20.447  1.00  0.00    -0.261 NA
ATOM     22  C   UNL     1      60.822  40.100  20.610  1.00  0.00     0.003 A 
ATOM     23  C   UNL     1      58.720  40.984  19.892  1.00  0.00     0.111 A 
ATOM     24  C   UNL     1      60.099  41.076  19.955  1.00  0.00     0.020 A 
ENDBRANCH  18  19
ENDBRANCH   5  18
ENDBRANCH   1   5
BRANCH   2  25
ATOM     25  C   UNL     1      54.019  36.579  22.484  1.00  0.00     0.193 C 
BRANCH  25  26
ATOM     26  C   UNL     1      53.349  37.649  23.292  1.00  0.00     0.029 C 
BRANCH  26  27
ATOM     27  C   UNL     1      53.628  37.570  24.802  1.00  0.00    -0.016 C 
ATOM     28  C   UNL     1      52.534  38.335  25.563  1.00  0.00     0.007 C 
ATOM     29  C   UNL     1      53.738  36.134  25.334  1.00  0.00     0.007 C 
ENDBRANCH  26  27
ENDBRANCH  25  26
BRANCH  25  30
ATOM     30  P   UNL     1      52.897  35.648  21.448  1.00  0.00     0.337 P 
ATOM     31  O   UNL     1      53.425  35.599  20.069  1.00  0.00    -0.260 OA
BRANCH  30  32
ATOM     32  O   UNL     1      52.716  34.299  22.019  1.00  0.00    -0.324 OA
ATOM     33  H   UNL     1      51.932  34.299  22.624  1.00  0.00     0.221 HD
ENDBRANCH  30  32
BRANCH  30  34
ATOM     34  O   UNL     1      51.455  36.108  21.659  1.00  0.00    -0.324 OA
ATOM     35  H   UNL     1      50.868  35.318  21.766  1.00  0.00     0.221 HD
ENDBRANCH  30  34
ENDBRANCH  25  30
ENDBRANCH   2  25
TORSDOF 11
ENDMDL
