MODEL 1
REMARK VINA RESULT:    -9.016      0.000      0.000
REMARK INTER + INTRA:         -14.984
REMARK INTER:                 -13.759
REMARK INTRA:                  -1.225
REMARK UNBOUND:                -1.225
REMARK SMILES CC(C)C[C@H](C(=O)Nc1ccc(NS(=O)(=O)c2ccc(Cl)c(Cl)c2)cc1)P(=O)(O)O
REMARK SMILES IDX 9 1 11 2 25 3 10 4 26 5 12 6 8 7 6 8 7 9 5 11 4 12 2 13 1 14
REMARK SMILES IDX 3 15 27 16 28 17 29 18 30 20 13 22 14 24 16 25 15 26 17 27
REMARK SMILES IDX 18 28 24 29 19 30 22 31 20 32 23 33 21 34
REMARK H PARENT 8 10 29 19 30 21 13 23
ROOT
ATOM      1  C   UNL     1      52.485  34.207  20.865  1.00  0.00     0.041 A 
ATOM      2  C   UNL     1      52.643  32.531  19.137  1.00  0.00     0.029 A 
ATOM      3  C   UNL     1      50.515  33.063  20.132  1.00  0.00     0.029 A 
ATOM      4  C   UNL     1      53.249  33.476  19.974  1.00  0.00     0.028 A 
ATOM      5  C   UNL     1      51.127  33.999  20.959  1.00  0.00     0.028 A 
ATOM      6  C   UNL     1      51.268  32.334  19.217  1.00  0.00     0.049 A 
ENDROOT
BRANCH   1   7
ATOM      7  N   UNL     1      53.177  35.147  21.726  1.00  0.00    -0.325 N 
ATOM      8  C   UNL     1      53.009  36.564  21.668  1.00  0.00     0.239 C 
ATOM      9  O   UNL     1      52.308  37.144  20.867  1.00  0.00    -0.274 OA
ATOM     10  H   UNL     1      53.833  34.769  22.425  1.00  0.00     0.169 HD
BRANCH   8  11
ATOM     11  C   UNL     1      53.882  37.303  22.682  1.00  0.00     0.194 C 
BRANCH  11  12
ATOM     12  C   UNL     1      53.659  36.715  24.059  1.00  0.00     0.029 C 
BRANCH  12  13
ATOM     13  C   UNL     1      53.506  37.702  25.194  1.00  0.00    -0.016 C 
ATOM     14  C   UNL     1      54.489  37.312  26.299  1.00  0.00     0.007 C 
ATOM     15  C   UNL     1      52.085  37.732  25.734  1.00  0.00     0.007 C 
ENDBRANCH  12  13
ENDBRANCH  11  12
BRANCH  11  16
ATOM     16  P   UNL     1      55.634  37.181  22.101  1.00  0.00     0.337 P 
ATOM     17  O   UNL     1      56.133  38.464  21.473  1.00  0.00    -0.260 OA
BRANCH  16  18
ATOM     18  O   UNL     1      56.435  36.739  23.346  1.00  0.00    -0.324 OA
ATOM     19  H   UNL     1      55.968  37.042  24.165  1.00  0.00     0.221 HD
ENDBRANCH  16  18
BRANCH  16  20
ATOM     20  O   UNL     1      55.717  36.099  21.046  1.00  0.00    -0.324 OA
ATOM     21  H   UNL     1      55.089  35.368  21.272  1.00  0.00     0.221 HD
ENDBRANCH  16  20
ENDBRANCH  11  16
ENDBRANCH   8  11
ENDBRANCH   1   7
BRANCH   6  22
ATOM     22  N   UNL     1      50.577  31.358  18.385  1.00  0.00    -0.280 N 
ATOM     23  H   UNL     1      50.269  30.480  18.826  1.00  0.00     0.180 HD
BRANCH  22  24
ATOM     24  S   UNL     1      50.247  31.580  16.728  1.00  0.00     0.261 S 
ATOM     25  O   UNL     1      51.232  32.411  16.020  1.00  0.00    -0.201 OA
ATOM     26  O   UNL     1      50.250  30.322  15.969  1.00  0.00    -0.201 OA
BRANCH  24  27
ATOM     27  C   UNL     1      48.622  32.363  16.736  1.00  0.00     0.089 A 
ATOM     28  C   UNL     1      48.526  33.657  17.205  1.00  0.00     0.024 A 
ATOM     29  C   UNL     1      47.522  31.685  16.247  1.00  0.00     0.044 A 
ATOM     30  C   UNL     1      47.301  34.283  17.204  1.00  0.00     0.023 A 
ATOM     31  C   UNL     1      46.291  32.309  16.240  1.00  0.00     0.061 A 
ATOM     32  C   UNL     1      46.189  33.616  16.721  1.00  0.00     0.059 A 
ATOM     33  Cl  UNL     1      44.892  31.393  15.604  1.00  0.00    -0.083 Cl
ATOM     34  Cl  UNL     1      44.651  34.510  16.758  1.00  0.00    -0.083 Cl
ENDBRANCH  24  27
ENDBRANCH  22  24
ENDBRANCH   6  22
TORSDOF 10
ENDMDL
MODEL 2
REMARK VINA RESULT:    -8.913      1.911      2.373
REMARK INTER + INTRA:         -14.827
REMARK INTER:                 -13.864
REMARK INTRA:                  -0.963
REMARK UNBOUND:                -1.225
REMARK SMILES CC(C)C[C@H](C(=O)Nc1ccc(NS(=O)(=O)c2ccc(Cl)c(Cl)c2)cc1)P(=O)(O)O
REMARK SMILES IDX 9 1 11 2 25 3 10 4 26 5 12 6 8 7 6 8 7 9 5 11 4 12 2 13 1 14
REMARK SMILES IDX 3 15 27 16 28 17 29 18 30 20 13 22 14 24 16 25 15 26 17 27
REMARK SMILES IDX 18 28 24 29 19 30 22 31 20 32 23 33 21 34
REMARK H PARENT 8 10 29 19 30 21 13 23
ROOT
ATOM      1  C   UNL     1      52.730  35.609  21.610  1.00  0.00     0.041 A 
ATOM      2  C   UNL     1      53.328  34.344  19.645  1.00  0.00     0.029 A 
ATOM      3  C   UNL     1      51.018  34.820  20.136  1.00  0.00     0.029 A 
ATOM      4  C   UNL     1      53.697  35.030  20.809  1.00  0.00     0.028 A 
ATOM      5  C   UNL     1      51.395  35.500  21.291  1.00  0.00     0.028 A 
ATOM      6  C   UNL     1      51.980  34.249  19.311  1.00  0.00     0.049 A 
ENDROOT
BRANCH   1   7
ATOM      7  N   UNL     1      53.175  36.278  22.819  1.00  0.00    -0.325 N 
ATOM      8  C   UNL     1      53.256  37.696  22.969  1.00  0.00     0.239 C 
ATOM      9  O   UNL     1      53.008  38.498  22.095  1.00  0.00    -0.274 OA
ATOM     10  H   UNL     1      53.451  35.693  23.620  1.00  0.00     0.169 HD
BRANCH   8  11
ATOM     11  C   UNL     1      53.777  38.114  24.343  1.00  0.00     0.194 C 
BRANCH  11  12
ATOM     12  C   UNL     1      52.607  38.383  25.264  1.00  0.00     0.029 C 
BRANCH  12  13
ATOM     13  C   UNL     1      52.622  39.703  26.001  1.00  0.00    -0.016 C 
ATOM     14  C   UNL     1      53.890  39.756  26.855  1.00  0.00     0.007 C 
ATOM     15  C   UNL     1      51.388  39.884  26.872  1.00  0.00     0.007 C 
ENDBRANCH  12  13
ENDBRANCH  11  12
BRANCH  11  16
ATOM     16  P   UNL     1      54.896  36.770  24.946  1.00  0.00     0.337 P 
ATOM     17  O   UNL     1      54.148  35.512  25.329  1.00  0.00    -0.260 OA
BRANCH  16  18
ATOM     18  O   UNL     1      55.923  36.567  23.809  1.00  0.00    -0.324 OA
ATOM     19  H   UNL     1      56.670  36.004  24.135  1.00  0.00     0.221 HD
ENDBRANCH  16  18
BRANCH  16  20
ATOM     20  O   UNL     1      55.616  37.261  26.184  1.00  0.00    -0.324 OA
ATOM     21  H   UNL     1      55.952  36.486  26.700  1.00  0.00     0.221 HD
ENDBRANCH  16  20
ENDBRANCH  11  16
ENDBRANCH   8  11
ENDBRANCH   1   7
BRANCH   6  22
ATOM     22  N   UNL     1      51.527  33.539  18.122  1.00  0.00    -0.280 N 
ATOM     23  H   UNL     1      51.878  33.857  17.207  1.00  0.00     0.180 HD
BRANCH  22  24
ATOM     24  S   UNL     1      50.452  32.217  18.151  1.00  0.00     0.261 S 
ATOM     25  O   UNL     1      50.985  30.990  17.541  1.00  0.00    -0.201 OA
ATOM     26  O   UNL     1      50.097  31.797  19.514  1.00  0.00    -0.201 OA
BRANCH  24  27
ATOM     27  C   UNL     1      49.023  32.831  17.237  1.00  0.00     0.089 A 
ATOM     28  C   UNL     1      48.281  33.847  17.800  1.00  0.00     0.024 A 
ATOM     29  C   UNL     1      48.720  32.310  15.994  1.00  0.00     0.044 A 
ATOM     30  C   UNL     1      47.196  34.345  17.115  1.00  0.00     0.023 A 
ATOM     31  C   UNL     1      47.635  32.809  15.300  1.00  0.00     0.061 A 
ATOM     32  C   UNL     1      46.876  33.833  15.870  1.00  0.00     0.059 A 
ATOM     33  Cl  UNL     1      47.273  32.103  13.696  1.00  0.00    -0.083 Cl
ATOM     34  Cl  UNL     1      45.460  34.544  15.061  1.00  0.00    -0.083 Cl
ENDBRANCH  24  27
ENDBRANCH  22  24
ENDBRANCH   6  22
TORSDOF 10
ENDMDL
MODEL 3
REMARK VINA RESULT:    -8.734      8.184     11.749
REMARK INTER + INTRA:         -14.555
REMARK INTER:                 -13.316
REMARK INTRA:                  -1.239
REMARK UNBOUND:                -1.225
REMARK SMILES CC(C)C[C@H](C(=O)Nc1ccc(NS(=O)(=O)c2ccc(Cl)c(Cl)c2)cc1)P(=O)(O)O
REMARK SMILES IDX 9 1 11 2 25 3 10 4 26 5 12 6 8 7 6 8 7 9 5 11 4 12 2 13 1 14
REMARK SMILES IDX 3 15 27 16 28 17 29 18 30 20 13 22 14 24 16 25 15 26 17 27
REMARK SMILES IDX 18 28 24 29 19 30 22 31 20 32 23 33 21 34
REMARK H PARENT 8 10 29 19 30 21 13 23
ROOT
ATOM      1  C   UNL     1      57.222  37.148  21.375  1.00  0.00     0.041 A 
ATOM      2  C   UNL     1      58.415  37.901  19.418  1.00  0.00     0.029 A 
ATOM      3  C   UNL     1      59.406  38.098  21.605  1.00  0.00     0.029 A 
ATOM      4  C   UNL     1      57.276  37.335  20.006  1.00  0.00     0.028 A 
ATOM      5  C   UNL     1      58.270  37.535  22.179  1.00  0.00     0.028 A 
ATOM      6  C   UNL     1      59.483  38.275  20.227  1.00  0.00     0.049 A 
ENDROOT
BRANCH   1   7
ATOM      7  N   UNL     1      56.002  36.586  21.925  1.00  0.00    -0.325 N 
ATOM      8  C   UNL     1      54.824  37.342  22.205  1.00  0.00     0.239 C 
ATOM      9  O   UNL     1      54.722  38.541  22.059  1.00  0.00    -0.274 OA
ATOM     10  H   UNL     1      55.986  35.576  22.128  1.00  0.00     0.169 HD
BRANCH   8  11
ATOM     11  C   UNL     1      53.704  36.488  22.799  1.00  0.00     0.194 C 
BRANCH  11  12
ATOM     12  C   UNL     1      52.796  37.364  23.637  1.00  0.00     0.029 C 
BRANCH  12  13
ATOM     13  C   UNL     1      53.214  37.584  25.073  1.00  0.00    -0.016 C 
ATOM     14  C   UNL     1      53.594  36.229  25.670  1.00  0.00     0.007 C 
ATOM     15  C   UNL     1      52.112  38.236  25.893  1.00  0.00     0.007 C 
ENDBRANCH  12  13
ENDBRANCH  11  12
BRANCH  11  16
ATOM     16  P   UNL     1      52.835  35.655  21.395  1.00  0.00     0.337 P 
ATOM     17  O   UNL     1      52.157  36.634  20.461  1.00  0.00    -0.260 OA
BRANCH  16  18
ATOM     18  O   UNL     1      53.918  34.787  20.715  1.00  0.00    -0.324 OA
ATOM     19  H   UNL     1      53.807  33.843  20.992  1.00  0.00     0.221 HD
ENDBRANCH  16  18
BRANCH  16  20
ATOM     20  O   UNL     1      51.759  34.753  21.961  1.00  0.00    -0.324 OA
ATOM     21  H   UNL     1      52.015  33.806  21.822  1.00  0.00     0.221 HD
ENDBRANCH  16  20
ENDBRANCH  11  16
ENDBRANCH   8  11
ENDBRANCH   1   7
BRANCH   6  22
ATOM     22  N   UNL     1      60.690  38.881  19.683  1.00  0.00    -0.280 N 
ATOM     23  H   UNL     1      61.495  38.267  19.491  1.00  0.00     0.180 HD
BRANCH  22  24
ATOM     24  S   UNL     1      60.855  40.544  19.344  1.00  0.00     0.261 S 
ATOM     25  O   UNL     1      61.738  40.845  18.208  1.00  0.00    -0.201 OA
ATOM     26  O   UNL     1      59.584  41.181  18.970  1.00  0.00    -0.201 OA
BRANCH  24  27
ATOM     27  C   UNL     1      61.521  41.211  20.881  1.00  0.00     0.089 A 
ATOM     28  C   UNL     1      61.341  42.554  21.138  1.00  0.00     0.024 A 
ATOM     29  C   UNL     1      62.158  40.378  21.781  1.00  0.00     0.044 A 
ATOM     30  C   UNL     1      61.824  43.084  22.313  1.00  0.00     0.023 A 
ATOM     31  C   UNL     1      62.641  40.904  22.963  1.00  0.00     0.061 A 
ATOM     32  C   UNL     1      62.467  42.264  23.223  1.00  0.00     0.059 A 
ATOM     33  Cl  UNL     1      63.464  39.791  24.097  1.00  0.00    -0.083 Cl
ATOM     34  Cl  UNL     1      63.052  43.040  24.713  1.00  0.00    -0.083 Cl
ENDBRANCH  24  27
ENDBRANCH  22  24
ENDBRANCH   6  22
TORSDOF 10
ENDMDL
MODEL 4
REMARK VINA RESULT:    -8.286      2.015      2.687
REMARK INTER + INTRA:         -13.871
REMARK INTER:                 -12.704
REMARK INTRA:                  -1.167
REMARK UNBOUND:                -1.225
REMARK SMILES CC(C)C[C@H](C(=O)Nc1ccc(NS(=O)(=O)c2ccc(Cl)c(Cl)c2)cc1)P(=O)(O)O
REMARK SMILES IDX 9 1 11 2 25 3 10 4 26 5 12 6 8 7 6 8 7 9 5 11 4 12 2 13 1 14
REMARK SMILES IDX 3 15 27 16 28 17 29 18 30 20 13 22 14 24 16 25 15 26 17 27
REMARK SMILES IDX 18 28 24 29 19 30 22 31 20 32 23 33 21 34
REMARK H PARENT 8 10 29 19 30 21 13 23
ROOT
ATOM      1  C   UNL     1      52.371  34.679  20.636  1.00  0.00     0.041 A 
ATOM      2  C   UNL     1      50.265  33.661  20.046  1.00  0.00     0.029 A 
ATOM      3  C   UNL     1      52.021  33.873  18.410  1.00  0.00     0.029 A 
ATOM      4  C   UNL     1      51.094  34.283  20.988  1.00  0.00     0.028 A 
ATOM      5  C   UNL     1      52.836  34.491  19.354  1.00  0.00     0.028 A 
ATOM      6  C   UNL     1      50.741  33.452  18.755  1.00  0.00     0.049 A 
ENDROOT
BRANCH   1   7
ATOM      7  N   UNL     1      53.168  35.347  21.649  1.00  0.00    -0.325 N 
ATOM      8  C   UNL     1      53.143  36.753  21.893  1.00  0.00     0.239 C 
ATOM      9  O   UNL     1      52.492  37.553  21.256  1.00  0.00    -0.274 OA
ATOM     10  H   UNL     1      53.792  34.768  22.229  1.00  0.00     0.169 HD
BRANCH   8  11
ATOM     11  C   UNL     1      54.102  37.175  23.006  1.00  0.00     0.194 C 
BRANCH  11  12
ATOM     12  C   UNL     1      53.932  36.250  24.192  1.00  0.00     0.029 C 
BRANCH  12  13
ATOM     13  C   UNL     1      53.488  36.893  25.487  1.00  0.00    -0.016 C 
ATOM     14  C   UNL     1      52.410  37.926  25.159  1.00  0.00     0.007 C 
ATOM     15  C   UNL     1      54.646  37.549  26.223  1.00  0.00     0.007 C 
ENDBRANCH  12  13
ENDBRANCH  11  12
BRANCH  11  16
ATOM     16  P   UNL     1      55.812  37.164  22.301  1.00  0.00     0.337 P 
ATOM     17  O   UNL     1      56.184  38.477  21.648  1.00  0.00    -0.260 OA
BRANCH  16  18
ATOM     18  O   UNL     1      56.727  36.770  23.482  1.00  0.00    -0.324 OA
ATOM     19  H   UNL     1      57.669  36.754  23.179  1.00  0.00     0.221 HD
ENDBRANCH  16  18
BRANCH  16  20
ATOM     20  O   UNL     1      55.887  36.092  21.235  1.00  0.00    -0.324 OA
ATOM     21  H   UNL     1      55.712  36.496  20.348  1.00  0.00     0.221 HD
ENDBRANCH  16  20
ENDBRANCH  11  16
ENDBRANCH   8  11
ENDBRANCH   1   7
BRANCH   6  22
ATOM     22  N   UNL     1      49.927  32.823  17.723  1.00  0.00    -0.280 N 
ATOM     23  H   UNL     1      50.357  32.080  17.155  1.00  0.00     0.180 HD
BRANCH  22  24
ATOM     24  S   UNL     1      48.307  33.243  17.398  1.00  0.00     0.261 S 
ATOM     25  O   UNL     1      47.327  32.609  18.291  1.00  0.00    -0.201 OA
ATOM     26  O   UNL     1      48.043  34.679  17.561  1.00  0.00    -0.201 OA
BRANCH  24  27
ATOM     27  C   UNL     1      48.079  32.701  15.692  1.00  0.00     0.089 A 
ATOM     28  C   UNL     1      49.097  31.987  15.096  1.00  0.00     0.024 A 
ATOM     29  C   UNL     1      46.896  32.969  15.032  1.00  0.00     0.044 A 
ATOM     30  C   UNL     1      48.940  31.547  13.801  1.00  0.00     0.023 A 
ATOM     31  C   UNL     1      46.731  32.527  13.734  1.00  0.00     0.061 A 
ATOM     32  C   UNL     1      47.763  31.810  13.124  1.00  0.00     0.059 A 
ATOM     33  Cl  UNL     1      45.186  32.901  12.913  1.00  0.00    -0.083 Cl
ATOM     34  Cl  UNL     1      47.652  31.196  11.458  1.00  0.00    -0.083 Cl
ENDBRANCH  24  27
ENDBRANCH  22  24
ENDBRANCH   6  22
TORSDOF 10
ENDMDL
MODEL 5
REMARK VINA RESULT:    -8.229      1.748      2.417
REMARK INTER + INTRA:         -13.784
REMARK INTER:                 -12.799
REMARK INTRA:                  -0.985
REMARK UNBOUND:                -1.225
REMARK SMILES CC(C)C[C@H](C(=O)Nc1ccc(NS(=O)(=O)c2ccc(Cl)c(Cl)c2)cc1)P(=O)(O)O
REMARK SMILES IDX 9 1 11 2 25 3 10 4 26 5 12 6 8 7 6 8 7 9 5 11 4 12 2 13 1 14
REMARK SMILES IDX 3 15 27 16 28 17 29 18 30 20 13 22 14 24 16 25 15 26 17 27
REMARK SMILES IDX 18 28 24 29 19 30 22 31 20 32 23 33 21 34
REMARK H PARENT 8 10 29 19 30 21 13 23
ROOT
ATOM      1  C   UNL     1      52.081  34.209  20.762  1.00  0.00     0.041 A 
ATOM      2  C   UNL     1      52.087  32.354  19.220  1.00  0.00     0.029 A 
ATOM      3  C   UNL     1      50.008  33.288  19.999  1.00  0.00     0.029 A 
ATOM      4  C   UNL     1      52.778  33.286  20.005  1.00  0.00     0.028 A 
ATOM      5  C   UNL     1      50.704  34.210  20.775  1.00  0.00     0.028 A 
ATOM      6  C   UNL     1      50.696  32.366  19.217  1.00  0.00     0.049 A 
ENDROOT
BRANCH   1   7
ATOM      7  N   UNL     1      52.854  35.128  21.577  1.00  0.00    -0.325 N 
ATOM      8  C   UNL     1      54.097  35.706  21.177  1.00  0.00     0.239 C 
ATOM      9  O   UNL     1      54.668  35.463  20.137  1.00  0.00    -0.274 OA
ATOM     10  H   UNL     1      52.483  35.378  22.505  1.00  0.00     0.169 HD
BRANCH   8  11
ATOM     11  C   UNL     1      54.693  36.619  22.248  1.00  0.00     0.194 C 
BRANCH  11  12
ATOM     12  C   UNL     1      55.827  37.422  21.648  1.00  0.00     0.029 C 
BRANCH  12  13
ATOM     13  C   UNL     1      57.190  37.233  22.276  1.00  0.00    -0.016 C 
ATOM     14  C   UNL     1      57.989  36.271  21.395  1.00  0.00     0.007 C 
ATOM     15  C   UNL     1      57.094  36.696  23.696  1.00  0.00     0.007 C 
ENDBRANCH  12  13
ENDBRANCH  11  12
BRANCH  11  16
ATOM     16  P   UNL     1      53.321  37.664  22.916  1.00  0.00     0.337 P 
ATOM     17  O   UNL     1      53.816  38.777  23.814  1.00  0.00    -0.260 OA
BRANCH  16  18
ATOM     18  O   UNL     1      52.554  38.158  21.670  1.00  0.00    -0.324 OA
ATOM     19  H   UNL     1      51.581  38.039  21.811  1.00  0.00     0.221 HD
ENDBRANCH  16  18
BRANCH  16  20
ATOM     20  O   UNL     1      52.408  36.787  23.746  1.00  0.00    -0.324 OA
ATOM     21  H   UNL     1      51.485  36.844  23.393  1.00  0.00     0.221 HD
ENDBRANCH  16  20
ENDBRANCH  11  16
ENDBRANCH   8  11
ENDBRANCH   1   7
BRANCH   6  22
ATOM     22  N   UNL     1      49.916  31.416  18.435  1.00  0.00    -0.280 N 
ATOM     23  H   UNL     1      49.483  30.624  18.930  1.00  0.00     0.180 HD
BRANCH  22  24
ATOM     24  S   UNL     1      49.678  31.535  16.751  1.00  0.00     0.261 S 
ATOM     25  O   UNL     1      50.736  32.268  16.040  1.00  0.00    -0.201 OA
ATOM     26  O   UNL     1      49.656  30.227  16.081  1.00  0.00    -0.201 OA
BRANCH  24  27
ATOM     27  C   UNL     1      48.095  32.390  16.622  1.00  0.00     0.089 A 
ATOM     28  C   UNL     1      48.008  33.675  17.117  1.00  0.00     0.024 A 
ATOM     29  C   UNL     1      47.022  31.774  16.006  1.00  0.00     0.044 A 
ATOM     30  C   UNL     1      46.816  34.355  17.014  1.00  0.00     0.023 A 
ATOM     31  C   UNL     1      45.825  32.454  15.897  1.00  0.00     0.061 A 
ATOM     32  C   UNL     1      45.731  33.751  16.404  1.00  0.00     0.059 A 
ATOM     33  Cl  UNL     1      44.459  31.617  15.099  1.00  0.00    -0.083 Cl
ATOM     34  Cl  UNL     1      44.236  34.712  16.314  1.00  0.00    -0.083 Cl
ENDBRANCH  24  27
ENDBRANCH  22  24
ENDBRANCH   6  22
TORSDOF 10
ENDMDL
MODEL 6
REMARK VINA RESULT:    -8.167      3.549      5.169
REMARK INTER + INTRA:         -13.689
REMARK INTER:                 -12.725
REMARK INTRA:                  -0.964
REMARK UNBOUND:                -1.225
REMARK SMILES CC(C)C[C@H](C(=O)Nc1ccc(NS(=O)(=O)c2ccc(Cl)c(Cl)c2)cc1)P(=O)(O)O
REMARK SMILES IDX 9 1 11 2 25 3 10 4 26 5 12 6 8 7 6 8 7 9 5 11 4 12 2 13 1 14
REMARK SMILES IDX 3 15 27 16 28 17 29 18 30 20 13 22 14 24 16 25 15 26 17 27
REMARK SMILES IDX 18 28 24 29 19 30 22 31 20 32 23 33 21 34
REMARK H PARENT 8 10 29 19 30 21 13 23
ROOT
ATOM      1  C   UNL     1      49.928  33.254  18.753  1.00  0.00     0.041 A 
ATOM      2  C   UNL     1      48.963  32.783  16.594  1.00  0.00     0.029 A 
ATOM      3  C   UNL     1      47.552  33.094  18.521  1.00  0.00     0.029 A 
ATOM      4  C   UNL     1      50.085  32.989  17.406  1.00  0.00     0.028 A 
ATOM      5  C   UNL     1      48.674  33.297  19.319  1.00  0.00     0.028 A 
ATOM      6  C   UNL     1      47.693  32.845  17.160  1.00  0.00     0.049 A 
ENDROOT
BRANCH   1   7
ATOM      7  N   UNL     1      51.132  33.427  19.546  1.00  0.00    -0.325 N 
ATOM      8  C   UNL     1      51.769  34.683  19.776  1.00  0.00     0.239 C 
ATOM      9  O   UNL     1      51.408  35.738  19.301  1.00  0.00    -0.274 OA
ATOM     10  H   UNL     1      51.554  32.588  19.970  1.00  0.00     0.169 HD
BRANCH   8  11
ATOM     11  C   UNL     1      53.030  34.556  20.631  1.00  0.00     0.194 C 
BRANCH  11  12
ATOM     12  C   UNL     1      54.250  34.617  19.738  1.00  0.00     0.029 C 
BRANCH  12  13
ATOM     13  C   UNL     1      54.207  33.776  18.483  1.00  0.00    -0.016 C 
ATOM     14  C   UNL     1      54.328  32.307  18.891  1.00  0.00     0.007 C 
ATOM     15  C   UNL     1      55.314  34.148  17.509  1.00  0.00     0.007 C 
ENDBRANCH  12  13
ENDBRANCH  11  12
BRANCH  11  16
ATOM     16  P   UNL     1      52.978  35.898  21.903  1.00  0.00     0.337 P 
ATOM     17  O   UNL     1      53.963  37.011  21.620  1.00  0.00    -0.260 OA
BRANCH  16  18
ATOM     18  O   UNL     1      51.504  36.360  21.934  1.00  0.00    -0.324 OA
ATOM     19  H   UNL     1      50.981  35.757  22.520  1.00  0.00     0.221 HD
ENDBRANCH  16  18
BRANCH  16  20
ATOM     20  O   UNL     1      53.341  35.304  23.246  1.00  0.00    -0.324 OA
ATOM     21  H   UNL     1      53.829  34.453  23.110  1.00  0.00     0.221 HD
ENDBRANCH  16  20
ENDBRANCH  11  16
ENDBRANCH   8  11
ENDBRANCH   1   7
BRANCH   6  22
ATOM     22  N   UNL     1      46.485  32.628  16.376  1.00  0.00    -0.280 N 
ATOM     23  H   UNL     1      46.327  31.689  15.983  1.00  0.00     0.180 HD
BRANCH  22  24
ATOM     24  S   UNL     1      45.319  33.831  16.067  1.00  0.00     0.261 S 
ATOM     25  O   UNL     1      44.049  33.642  16.784  1.00  0.00    -0.201 OA
ATOM     26  O   UNL     1      45.753  35.172  16.486  1.00  0.00    -0.201 OA
BRANCH  24  27
ATOM     27  C   UNL     1      45.080  33.722  14.282  1.00  0.00     0.089 A 
ATOM     28  C   UNL     1      44.067  34.467  13.716  1.00  0.00     0.024 A 
ATOM     29  C   UNL     1      45.923  32.940  13.516  1.00  0.00     0.044 A 
ATOM     30  C   UNL     1      43.876  34.416  12.354  1.00  0.00     0.023 A 
ATOM     31  C   UNL     1      45.738  32.887  12.149  1.00  0.00     0.061 A 
ATOM     32  C   UNL     1      44.709  33.634  11.573  1.00  0.00     0.059 A 
ATOM     33  Cl  UNL     1      46.847  31.856  11.195  1.00  0.00    -0.083 Cl
ATOM     34  Cl  UNL     1      44.385  33.636   9.823  1.00  0.00    -0.083 Cl
ENDBRANCH  24  27
ENDBRANCH  22  24
ENDBRANCH   6  22
TORSDOF 10
ENDMDL
MODEL 7
REMARK VINA RESULT:    -8.135      1.968      2.965
REMARK INTER + INTRA:         -13.641
REMARK INTER:                 -12.673
REMARK INTRA:                  -0.968
REMARK UNBOUND:                -1.225
REMARK SMILES CC(C)C[C@H](C(=O)Nc1ccc(NS(=O)(=O)c2ccc(Cl)c(Cl)c2)cc1)P(=O)(O)O
REMARK SMILES IDX 9 1 11 2 25 3 10 4 26 5 12 6 8 7 6 8 7 9 5 11 4 12 2 13 1 14
REMARK SMILES IDX 3 15 27 16 28 17 29 18 30 20 13 22 14 24 16 25 15 26 17 27
REMARK SMILES IDX 18 28 24 29 19 30 22 31 20 32 23 33 21 34
REMARK H PARENT 8 10 29 19 30 21 13 23
ROOT
ATOM      1  C   UNL     1      52.184  34.236  20.712  1.00  0.00     0.041 A 
ATOM      2  C   UNL     1      50.060  33.640  19.737  1.00  0.00     0.029 A 
ATOM      3  C   UNL     1      52.038  32.359  19.234  1.00  0.00     0.029 A 
ATOM      4  C   UNL     1      50.831  34.474  20.556  1.00  0.00     0.028 A 
ATOM      5  C   UNL     1      52.795  33.195  20.050  1.00  0.00     0.028 A 
ATOM      6  C   UNL     1      50.672  32.575  19.083  1.00  0.00     0.049 A 
ENDROOT
BRANCH   1   7
ATOM      7  N   UNL     1      52.934  35.156  21.548  1.00  0.00    -0.325 N 
ATOM      8  C   UNL     1      54.162  35.773  21.162  1.00  0.00     0.239 C 
ATOM      9  O   UNL     1      54.740  35.567  20.117  1.00  0.00    -0.274 OA
ATOM     10  H   UNL     1      52.556  35.377  22.480  1.00  0.00     0.169 HD
BRANCH   8  11
ATOM     11  C   UNL     1      54.734  36.678  22.253  1.00  0.00     0.194 C 
BRANCH  11  12
ATOM     12  C   UNL     1      55.849  37.521  21.673  1.00  0.00     0.029 C 
BRANCH  12  13
ATOM     13  C   UNL     1      57.260  37.075  21.984  1.00  0.00    -0.016 C 
ATOM     14  C   UNL     1      57.346  36.781  23.482  1.00  0.00     0.007 C 
ATOM     15  C   UNL     1      58.289  38.123  21.590  1.00  0.00     0.007 C 
ENDBRANCH  12  13
ENDBRANCH  11  12
BRANCH  11  16
ATOM     16  P   UNL     1      53.336  37.675  22.940  1.00  0.00     0.337 P 
ATOM     17  O   UNL     1      53.804  38.789  23.851  1.00  0.00    -0.260 OA
BRANCH  16  18
ATOM     18  O   UNL     1      52.551  38.165  21.703  1.00  0.00    -0.324 OA
ATOM     19  H   UNL     1      52.390  39.139  21.779  1.00  0.00     0.221 HD
ENDBRANCH  16  18
BRANCH  16  20
ATOM     20  O   UNL     1      52.451  36.762  23.761  1.00  0.00    -0.324 OA
ATOM     21  H   UNL     1      51.822  36.286  23.162  1.00  0.00     0.221 HD
ENDBRANCH  16  20
ENDBRANCH  11  16
ENDBRANCH   8  11
ENDBRANCH   1   7
BRANCH   6  22
ATOM     22  N   UNL     1      49.931  31.677  18.207  1.00  0.00    -0.280 N 
ATOM     23  H   UNL     1      49.165  31.125  18.618  1.00  0.00     0.180 HD
BRANCH  22  24
ATOM     24  S   UNL     1      50.254  31.483  16.545  1.00  0.00     0.261 S 
ATOM     25  O   UNL     1      51.479  32.152  16.084  1.00  0.00    -0.201 OA
ATOM     26  O   UNL     1      50.463  30.080  16.161  1.00  0.00    -0.201 OA
BRANCH  24  27
ATOM     27  C   UNL     1      48.792  32.191  15.758  1.00  0.00     0.089 A 
ATOM     28  C   UNL     1      48.411  31.694  14.530  1.00  0.00     0.024 A 
ATOM     29  C   UNL     1      48.067  33.175  16.401  1.00  0.00     0.044 A 
ATOM     30  C   UNL     1      47.289  32.204  13.917  1.00  0.00     0.023 A 
ATOM     31  C   UNL     1      46.938  33.689  15.793  1.00  0.00     0.061 A 
ATOM     32  C   UNL     1      46.554  33.193  14.546  1.00  0.00     0.059 A 
ATOM     33  Cl  UNL     1      46.032  34.966  16.657  1.00  0.00    -0.083 Cl
ATOM     34  Cl  UNL     1      45.118  33.785  13.677  1.00  0.00    -0.083 Cl
ENDBRANCH  24  27
ENDBRANCH  22  24
ENDBRANCH   6  22
TORSDOF 10
ENDMDL
MODEL 8
REMARK VINA RESULT:    -7.922      2.631      3.614
REMARK INTER + INTRA:         -13.316
REMARK INTER:                 -12.279
REMARK INTRA:                  -1.037
REMARK UNBOUND:                -1.225
REMARK SMILES CC(C)C[C@H](C(=O)Nc1ccc(NS(=O)(=O)c2ccc(Cl)c(Cl)c2)cc1)P(=O)(O)O
REMARK SMILES IDX 9 1 11 2 25 3 10 4 26 5 12 6 8 7 6 8 7 9 5 11 4 12 2 13 1 14
REMARK SMILES IDX 3 15 27 16 28 17 29 18 30 20 13 22 14 24 16 25 15 26 17 27
REMARK SMILES IDX 18 28 24 29 19 30 22 31 20 32 23 33 21 34
REMARK H PARENT 8 10 29 19 30 21 13 23
ROOT
ATOM      1  C   UNL     1      52.284  34.235  20.225  1.00  0.00     0.041 A 
ATOM      2  C   UNL     1      50.088  33.315  19.840  1.00  0.00     0.029 A 
ATOM      3  C   UNL     1      51.624  33.619  18.009  1.00  0.00     0.029 A 
ATOM      4  C   UNL     1      51.052  33.840  20.711  1.00  0.00     0.028 A 
ATOM      5  C   UNL     1      52.574  34.141  18.883  1.00  0.00     0.028 A 
ATOM      6  C   UNL     1      50.386  33.201  18.486  1.00  0.00     0.049 A 
ENDROOT
BRANCH   1   7
ATOM      7  N   UNL     1      53.227  34.801  21.173  1.00  0.00    -0.325 N 
ATOM      8  C   UNL     1      53.248  36.174  21.563  1.00  0.00     0.239 C 
ATOM      9  O   UNL     1      52.515  37.030  21.116  1.00  0.00    -0.274 OA
ATOM     10  H   UNL     1      53.926  34.171  21.591  1.00  0.00     0.169 HD
BRANCH   8  11
ATOM     11  C   UNL     1      54.363  36.486  22.560  1.00  0.00     0.194 C 
BRANCH  11  12
ATOM     12  C   UNL     1      55.171  37.664  22.057  1.00  0.00     0.029 C 
BRANCH  12  13
ATOM     13  C   UNL     1      56.571  37.361  21.574  1.00  0.00    -0.016 C 
ATOM     14  C   UNL     1      57.236  38.682  21.186  1.00  0.00     0.007 C 
ATOM     15  C   UNL     1      56.572  36.400  20.395  1.00  0.00     0.007 C 
ENDBRANCH  12  13
ENDBRANCH  11  12
BRANCH  11  16
ATOM     16  P   UNL     1      53.573  36.783  24.205  1.00  0.00     0.337 P 
ATOM     17  O   UNL     1      54.381  37.711  25.085  1.00  0.00    -0.260 OA
BRANCH  16  18
ATOM     18  O   UNL     1      52.156  37.305  23.878  1.00  0.00    -0.324 OA
ATOM     19  H   UNL     1      52.216  38.010  23.185  1.00  0.00     0.221 HD
ENDBRANCH  16  18
BRANCH  16  20
ATOM     20  O   UNL     1      53.459  35.459  24.931  1.00  0.00    -0.324 OA
ATOM     21  H   UNL     1      53.957  34.765  24.431  1.00  0.00     0.221 HD
ENDBRANCH  16  20
ENDBRANCH  11  16
ENDBRANCH   8  11
ENDBRANCH   1   7
BRANCH   6  22
ATOM     22  N   UNL     1      49.426  32.675  17.525  1.00  0.00    -0.280 N 
ATOM     23  H   UNL     1      49.705  31.861  16.958  1.00  0.00     0.180 HD
BRANCH  22  24
ATOM     24  S   UNL     1      47.869  33.323  17.279  1.00  0.00     0.261 S 
ATOM     25  O   UNL     1      46.855  32.840  18.228  1.00  0.00    -0.201 OA
ATOM     26  O   UNL     1      47.823  34.784  17.442  1.00  0.00    -0.201 OA
BRANCH  24  27
ATOM     27  C   UNL     1      47.475  32.817  15.593  1.00  0.00     0.089 A 
ATOM     28  C   UNL     1      48.270  31.858  15.001  1.00  0.00     0.024 A 
ATOM     29  C   UNL     1      46.382  33.358  14.944  1.00  0.00     0.044 A 
ATOM     30  C   UNL     1      47.980  31.442  13.722  1.00  0.00     0.023 A 
ATOM     31  C   UNL     1      46.084  32.940  13.661  1.00  0.00     0.061 A 
ATOM     32  C   UNL     1      46.891  31.976  13.056  1.00  0.00     0.059 A 
ATOM     33  Cl  UNL     1      44.664  33.670  12.855  1.00  0.00    -0.083 Cl
ATOM     34  Cl  UNL     1      46.595  31.371  11.409  1.00  0.00    -0.083 Cl
ENDBRANCH  24  27
ENDBRANCH  22  24
ENDBRANCH   6  22
TORSDOF 10
ENDMDL
MODEL 9
REMARK VINA RESULT:    -7.762      7.918     11.535
REMARK INTER + INTRA:         -13.070
REMARK INTER:                 -11.639
REMARK INTRA:                  -1.431
REMARK UNBOUND:                -1.225
REMARK SMILES CC(C)C[C@H](C(=O)Nc1ccc(NS(=O)(=O)c2ccc(Cl)c(Cl)c2)cc1)P(=O)(O)O
REMARK SMILES IDX 9 1 11 2 25 3 10 4 26 5 12 6 8 7 6 8 7 9 5 11 4 12 2 13 1 14
REMARK SMILES IDX 3 15 27 16 28 17 29 18 30 20 13 22 14 24 16 25 15 26 17 27
REMARK SMILES IDX 18 28 24 29 19 30 22 31 20 32 23 33 21 34
REMARK H PARENT 8 10 29 19 30 21 13 23
ROOT
ATOM      1  C   UNL     1      56.655  37.107  21.289  1.00  0.00     0.041 A 
ATOM      2  C   UNL     1      58.096  37.201  19.357  1.00  0.00     0.029 A 
ATOM      3  C   UNL     1      58.722  38.306  21.404  1.00  0.00     0.029 A 
ATOM      4  C   UNL     1      56.912  36.775  19.972  1.00  0.00     0.028 A 
ATOM      5  C   UNL     1      57.542  37.878  22.005  1.00  0.00     0.028 A 
ATOM      6  C   UNL     1      59.003  37.964  20.085  1.00  0.00     0.049 A 
ENDROOT
BRANCH   1   7
ATOM      7  N   UNL     1      55.396  36.662  21.859  1.00  0.00    -0.325 N 
ATOM      8  C   UNL     1      54.229  37.478  21.966  1.00  0.00     0.239 C 
ATOM      9  O   UNL     1      54.169  38.643  21.638  1.00  0.00    -0.274 OA
ATOM     10  H   UNL     1      55.340  35.695  22.208  1.00  0.00     0.169 HD
BRANCH   8  11
ATOM     11  C   UNL     1      53.059  36.749  22.626  1.00  0.00     0.194 C 
BRANCH  11  12
ATOM     12  C   UNL     1      52.887  35.390  21.982  1.00  0.00     0.029 C 
BRANCH  12  13
ATOM     13  C   UNL     1      52.325  35.378  20.579  1.00  0.00    -0.016 C 
ATOM     14  C   UNL     1      50.945  34.721  20.625  1.00  0.00     0.007 C 
ATOM     15  C   UNL     1      53.233  34.638  19.608  1.00  0.00     0.007 C 
ENDBRANCH  12  13
ENDBRANCH  11  12
BRANCH  11  16
ATOM     16  P   UNL     1      53.407  36.668  24.441  1.00  0.00     0.337 P 
ATOM     17  O   UNL     1      54.670  37.405  24.829  1.00  0.00    -0.260 OA
BRANCH  16  18
ATOM     18  O   UNL     1      52.130  37.214  25.116  1.00  0.00    -0.324 OA
ATOM     19  H   UNL     1      51.754  36.525  25.720  1.00  0.00     0.221 HD
ENDBRANCH  16  18
BRANCH  16  20
ATOM     20  O   UNL     1      53.593  35.217  24.831  1.00  0.00    -0.324 OA
ATOM     21  H   UNL     1      53.061  34.641  24.226  1.00  0.00     0.221 HD
ENDBRANCH  16  20
ENDBRANCH  11  16
ENDBRANCH   8  11
ENDBRANCH   1   7
BRANCH   6  22
ATOM     22  N   UNL     1      60.247  38.450  19.503  1.00  0.00    -0.280 N 
ATOM     23  H   UNL     1      61.044  37.800  19.455  1.00  0.00     0.180 HD
BRANCH  22  24
ATOM     24  S   UNL     1      60.464  40.028  18.896  1.00  0.00     0.261 S 
ATOM     25  O   UNL     1      61.349  40.110  17.725  1.00  0.00    -0.201 OA
ATOM     26  O   UNL     1      59.212  40.638  18.425  1.00  0.00    -0.201 OA
BRANCH  24  27
ATOM     27  C   UNL     1      61.162  40.915  20.303  1.00  0.00     0.089 A 
ATOM     28  C   UNL     1      60.953  42.276  20.382  1.00  0.00     0.024 A 
ATOM     29  C   UNL     1      61.852  40.228  21.283  1.00  0.00     0.044 A 
ATOM     30  C   UNL     1      61.460  42.973  21.454  1.00  0.00     0.023 A 
ATOM     31  C   UNL     1      62.360  40.922  22.364  1.00  0.00     0.061 A 
ATOM     32  C   UNL     1      62.156  42.301  22.443  1.00  0.00     0.059 A 
ATOM     33  Cl  UNL     1      63.252  39.995  23.607  1.00  0.00    -0.083 Cl
ATOM     34  Cl  UNL     1      62.769  43.288  23.791  1.00  0.00    -0.083 Cl
ENDBRANCH  24  27
ENDBRANCH  22  24
ENDBRANCH   6  22
TORSDOF 10
ENDMDL
MODEL 10
REMARK VINA RESULT:    -7.713      5.025      9.934
REMARK INTER + INTRA:         -12.997
REMARK INTER:                 -11.658
REMARK INTRA:                  -1.339
REMARK UNBOUND:                -1.225
REMARK SMILES CC(C)C[C@H](C(=O)Nc1ccc(NS(=O)(=O)c2ccc(Cl)c(Cl)c2)cc1)P(=O)(O)O
REMARK SMILES IDX 9 1 11 2 25 3 10 4 26 5 12 6 8 7 6 8 7 9 5 11 4 12 2 13 1 14
REMARK SMILES IDX 3 15 27 16 28 17 29 18 30 20 13 22 14 24 16 25 15 26 17 27
REMARK SMILES IDX 18 28 24 29 19 30 22 31 20 32 23 33 21 34
REMARK H PARENT 8 10 29 19 30 21 13 23
ROOT
ATOM      1  C   UNL     1      50.238  33.251  18.630  1.00  0.00     0.041 A 
ATOM      2  C   UNL     1      50.936  33.992  20.816  1.00  0.00     0.029 A 
ATOM      3  C   UNL     1      52.517  33.877  19.002  1.00  0.00     0.029 A 
ATOM      4  C   UNL     1      49.939  33.524  19.952  1.00  0.00     0.028 A 
ATOM      5  C   UNL     1      51.519  33.412  18.152  1.00  0.00     0.028 A 
ATOM      6  C   UNL     1      52.227  34.174  20.330  1.00  0.00     0.049 A 
ENDROOT
BRANCH   1   7
ATOM      7  N   UNL     1      49.168  32.738  17.794  1.00  0.00    -0.325 N 
ATOM      8  C   UNL     1      48.090  33.529  17.294  1.00  0.00     0.239 C 
ATOM      9  O   UNL     1      47.919  34.703  17.546  1.00  0.00    -0.274 OA
ATOM     10  H   UNL     1      49.187  31.739  17.545  1.00  0.00     0.169 HD
BRANCH   8  11
ATOM     11  C   UNL     1      47.101  32.717  16.458  1.00  0.00     0.194 C 
BRANCH  11  12
ATOM     12  C   UNL     1      46.383  33.637  15.494  1.00  0.00     0.029 C 
BRANCH  12  13
ATOM     13  C   UNL     1      44.882  33.735  15.651  1.00  0.00    -0.016 C 
ATOM     14  C   UNL     1      44.301  34.265  14.340  1.00  0.00     0.007 C 
ATOM     15  C   UNL     1      44.489  34.638  16.810  1.00  0.00     0.007 C 
ENDBRANCH  12  13
ENDBRANCH  11  12
BRANCH  11  16
ATOM     16  P   UNL     1      48.054  31.370  15.621  1.00  0.00     0.337 P 
ATOM     17  O   UNL     1      48.414  30.238  16.558  1.00  0.00    -0.260 OA
BRANCH  16  18
ATOM     18  O   UNL     1      47.172  30.940  14.429  1.00  0.00    -0.324 OA
ATOM     19  H   UNL     1      47.690  30.342  13.833  1.00  0.00     0.221 HD
ENDBRANCH  16  18
BRANCH  16  20
ATOM     20  O   UNL     1      49.350  31.951  15.097  1.00  0.00    -0.324 OA
ATOM     21  H   UNL     1      49.879  31.238  14.659  1.00  0.00     0.221 HD
ENDBRANCH  16  20
ENDBRANCH  11  16
ENDBRANCH   8  11
ENDBRANCH   1   7
BRANCH   6  22
ATOM     22  N   UNL     1      53.314  34.645  21.178  1.00  0.00    -0.280 N 
ATOM     23  H   UNL     1      54.040  33.969  21.453  1.00  0.00     0.180 HD
BRANCH  22  24
ATOM     24  S   UNL     1      53.456  36.246  21.745  1.00  0.00     0.261 S 
ATOM     25  O   UNL     1      52.473  37.180  21.175  1.00  0.00    -0.201 OA
ATOM     26  O   UNL     1      53.242  36.364  23.194  1.00  0.00    -0.201 OA
BRANCH  24  27
ATOM     27  C   UNL     1      55.136  36.701  21.269  1.00  0.00     0.089 A 
ATOM     28  C   UNL     1      55.707  37.800  21.875  1.00  0.00     0.024 A 
ATOM     29  C   UNL     1      55.828  35.936  20.350  1.00  0.00     0.044 A 
ATOM     30  C   UNL     1      56.994  38.157  21.543  1.00  0.00     0.023 A 
ATOM     31  C   UNL     1      57.121  36.287  20.015  1.00  0.00     0.061 A 
ATOM     32  C   UNL     1      57.700  37.404  20.622  1.00  0.00     0.059 A 
ATOM     33  Cl  UNL     1      57.978  35.273  18.817  1.00  0.00    -0.083 Cl
ATOM     34  Cl  UNL     1      59.357  37.942  20.261  1.00  0.00    -0.083 Cl
ENDBRANCH  24  27
ENDBRANCH  22  24
ENDBRANCH   6  22
TORSDOF 10
ENDMDL
MODEL 11
REMARK VINA RESULT:    -7.712      4.152      6.239
REMARK INTER + INTRA:         -12.995
REMARK INTER:                 -12.041
REMARK INTRA:                  -0.954
REMARK UNBOUND:                -1.225
REMARK SMILES CC(C)C[C@H](C(=O)Nc1ccc(NS(=O)(=O)c2ccc(Cl)c(Cl)c2)cc1)P(=O)(O)O
REMARK SMILES IDX 9 1 11 2 25 3 10 4 26 5 12 6 8 7 6 8 7 9 5 11 4 12 2 13 1 14
REMARK SMILES IDX 3 15 27 16 28 17 29 18 30 20 13 22 14 24 16 25 15 26 17 27
REMARK SMILES IDX 18 28 24 29 19 30 22 31 20 32 23 33 21 34
REMARK H PARENT 8 10 29 19 30 21 13 23
ROOT
ATOM      1  C   UNL     1      48.998  33.505  17.397  1.00  0.00     0.041 A 
ATOM      2  C   UNL     1      47.789  32.410  15.621  1.00  0.00     0.029 A 
ATOM      3  C   UNL     1      46.660  33.926  17.114  1.00  0.00     0.029 A 
ATOM      4  C   UNL     1      48.979  32.635  16.323  1.00  0.00     0.028 A 
ATOM      5  C   UNL     1      47.848  34.142  17.805  1.00  0.00     0.028 A 
ATOM      6  C   UNL     1      46.630  33.067  16.020  1.00  0.00     0.049 A 
ENDROOT
BRANCH   1   7
ATOM      7  N   UNL     1      50.256  33.671  18.103  1.00  0.00    -0.325 N 
ATOM      8  C   UNL     1      50.523  33.145  19.403  1.00  0.00     0.239 C 
ATOM      9  O   UNL     1      49.720  32.543  20.083  1.00  0.00    -0.274 OA
ATOM     10  H   UNL     1      51.004  34.202  17.636  1.00  0.00     0.169 HD
BRANCH   8  11
ATOM     11  C   UNL     1      51.924  33.494  19.903  1.00  0.00     0.194 C 
BRANCH  11  12
ATOM     12  C   UNL     1      52.900  33.431  18.748  1.00  0.00     0.029 C 
BRANCH  12  13
ATOM     13  C   UNL     1      53.438  32.062  18.397  1.00  0.00    -0.016 C 
ATOM     14  C   UNL     1      54.962  32.156  18.321  1.00  0.00     0.007 C 
ATOM     15  C   UNL     1      52.871  31.547  17.083  1.00  0.00     0.007 C 
ENDBRANCH  12  13
ENDBRANCH  11  12
BRANCH  11  16
ATOM     16  P   UNL     1      51.831  35.160  20.701  1.00  0.00     0.337 P 
ATOM     17  O   UNL     1      52.961  35.406  21.677  1.00  0.00    -0.260 OA
BRANCH  16  18
ATOM     18  O   UNL     1      51.789  36.162  19.525  1.00  0.00    -0.324 OA
ATOM     19  H   UNL     1      50.897  36.591  19.488  1.00  0.00     0.221 HD
ENDBRANCH  16  18
BRANCH  16  20
ATOM     20  O   UNL     1      50.536  35.251  21.478  1.00  0.00    -0.324 OA
ATOM     21  H   UNL     1      50.730  35.217  22.448  1.00  0.00     0.221 HD
ENDBRANCH  16  20
ENDBRANCH  11  16
ENDBRANCH   8  11
ENDBRANCH   1   7
BRANCH   6  22
ATOM     22  N   UNL     1      45.356  32.869  15.341  1.00  0.00    -0.280 N 
ATOM     23  H   UNL     1      44.603  33.550  15.518  1.00  0.00     0.180 HD
BRANCH  22  24
ATOM     24  S   UNL     1      45.033  31.579  14.275  1.00  0.00     0.261 S 
ATOM     25  O   UNL     1      45.642  30.300  14.670  1.00  0.00    -0.201 OA
ATOM     26  O   UNL     1      43.602  31.262  14.174  1.00  0.00    -0.201 OA
BRANCH  24  27
ATOM     27  C   UNL     1      45.710  32.165  12.708  1.00  0.00     0.089 A 
ATOM     28  C   UNL     1      47.066  32.029  12.495  1.00  0.00     0.024 A 
ATOM     29  C   UNL     1      44.872  32.696  11.746  1.00  0.00     0.044 A 
ATOM     30  C   UNL     1      47.603  32.452  11.301  1.00  0.00     0.023 A 
ATOM     31  C   UNL     1      45.406  33.118  10.545  1.00  0.00     0.061 A 
ATOM     32  C   UNL     1      46.779  32.989  10.328  1.00  0.00     0.059 A 
ATOM     33  Cl  UNL     1      44.287  33.805   9.329  1.00  0.00    -0.083 Cl
ATOM     34  Cl  UNL     1      47.567  33.502   8.818  1.00  0.00    -0.083 Cl
ENDBRANCH  24  27
ENDBRANCH  22  24
ENDBRANCH   6  22
TORSDOF 10
ENDMDL
MODEL 12
REMARK VINA RESULT:    -7.706      3.429      4.324
REMARK INTER + INTRA:         -12.986
REMARK INTER:                 -11.908
REMARK INTRA:                  -1.077
REMARK UNBOUND:                -1.225
REMARK SMILES CC(C)C[C@H](C(=O)Nc1ccc(NS(=O)(=O)c2ccc(Cl)c(Cl)c2)cc1)P(=O)(O)O
REMARK SMILES IDX 9 1 11 2 25 3 10 4 26 5 12 6 8 7 6 8 7 9 5 11 4 12 2 13 1 14
REMARK SMILES IDX 3 15 27 16 28 17 29 18 30 20 13 22 14 24 16 25 15 26 17 27
REMARK SMILES IDX 18 28 24 29 19 30 22 31 20 32 23 33 21 34
REMARK H PARENT 8 10 29 19 30 21 13 23
ROOT
ATOM      1  C   UNL     1      52.554  34.349  20.483  1.00  0.00     0.041 A 
ATOM      2  C   UNL     1      50.672  32.952  19.912  1.00  0.00     0.029 A 
ATOM      3  C   UNL     1      52.302  33.549  18.242  1.00  0.00     0.029 A 
ATOM      4  C   UNL     1      51.390  33.700  20.853  1.00  0.00     0.028 A 
ATOM      5  C   UNL     1      53.008  34.290  19.185  1.00  0.00     0.028 A 
ATOM      6  C   UNL     1      51.140  32.875  18.604  1.00  0.00     0.049 A 
ENDROOT
BRANCH   1   7
ATOM      7  N   UNL     1      53.234  35.134  21.497  1.00  0.00    -0.325 N 
ATOM      8  C   UNL     1      53.033  36.532  21.700  1.00  0.00     0.239 C 
ATOM      9  O   UNL     1      52.309  37.231  21.023  1.00  0.00    -0.274 OA
ATOM     10  H   UNL     1      53.906  34.650  22.109  1.00  0.00     0.169 HD
BRANCH   8  11
ATOM     11  C   UNL     1      53.900  37.095  22.825  1.00  0.00     0.194 C 
BRANCH  11  12
ATOM     12  C   UNL     1      53.717  36.254  24.069  1.00  0.00     0.029 C 
BRANCH  12  13
ATOM     13  C   UNL     1      53.266  36.985  25.314  1.00  0.00    -0.016 C 
ATOM     14  C   UNL     1      52.574  38.278  24.881  1.00  0.00     0.007 C 
ATOM     15  C   UNL     1      54.428  37.291  26.246  1.00  0.00     0.007 C 
ENDBRANCH  12  13
ENDBRANCH  11  12
BRANCH  11  16
ATOM     16  P   UNL     1      55.646  37.137  22.214  1.00  0.00     0.337 P 
ATOM     17  O   UNL     1      56.035  38.485  21.646  1.00  0.00    -0.260 OA
BRANCH  16  18
ATOM     18  O   UNL     1      56.501  36.695  23.421  1.00  0.00    -0.324 OA
ATOM     19  H   UNL     1      57.226  37.353  23.572  1.00  0.00     0.221 HD
ENDBRANCH  16  18
BRANCH  16  20
ATOM     20  O   UNL     1      55.792  36.120  21.102  1.00  0.00    -0.324 OA
ATOM     21  H   UNL     1      56.677  36.228  20.671  1.00  0.00     0.221 HD
ENDBRANCH  16  20
ENDBRANCH  11  16
ENDBRANCH   8  11
ENDBRANCH   1   7
BRANCH   6  22
ATOM     22  N   UNL     1      50.435  32.125  17.573  1.00  0.00    -0.280 N 
ATOM     23  H   UNL     1      49.429  32.307  17.447  1.00  0.00     0.180 HD
BRANCH  22  24
ATOM     24  S   UNL     1      51.171  30.967  16.563  1.00  0.00     0.261 S 
ATOM     25  O   UNL     1      50.422  30.671  15.334  1.00  0.00    -0.201 OA
ATOM     26  O   UNL     1      52.489  31.391  16.069  1.00  0.00    -0.201 OA
BRANCH  24  27
ATOM     27  C   UNL     1      51.282  29.511  17.623  1.00  0.00     0.089 A 
ATOM     28  C   UNL     1      50.164  29.146  18.344  1.00  0.00     0.024 A 
ATOM     29  C   UNL     1      52.449  28.773  17.669  1.00  0.00     0.044 A 
ATOM     30  C   UNL     1      50.217  28.029  19.146  1.00  0.00     0.023 A 
ATOM     31  C   UNL     1      52.507  27.649  18.469  1.00  0.00     0.061 A 
ATOM     32  C   UNL     1      51.379  27.281  19.206  1.00  0.00     0.059 A 
ATOM     33  Cl  UNL     1      54.039  26.727  18.505  1.00  0.00    -0.083 Cl
ATOM     34  Cl  UNL     1      51.348  25.853  20.267  1.00  0.00    -0.083 Cl
ENDBRANCH  24  27
ENDBRANCH  22  24
ENDBRANCH   6  22
TORSDOF 10
ENDMDL
MODEL 13
REMARK VINA RESULT:    -7.614      1.590      2.620
REMARK INTER + INTRA:         -12.845
REMARK INTER:                 -11.694
REMARK INTRA:                  -1.151
REMARK UNBOUND:                -1.225
REMARK SMILES CC(C)C[C@H](C(=O)Nc1ccc(NS(=O)(=O)c2ccc(Cl)c(Cl)c2)cc1)P(=O)(O)O
REMARK SMILES IDX 9 1 11 2 25 3 10 4 26 5 12 6 8 7 6 8 7 9 5 11 4 12 2 13 1 14
REMARK SMILES IDX 3 15 27 16 28 17 29 18 30 20 13 22 14 24 16 25 15 26 17 27
REMARK SMILES IDX 18 28 24 29 19 30 22 31 20 32 23 33 21 34
REMARK H PARENT 8 10 29 19 30 21 13 23
ROOT
ATOM      1  C   UNL     1      52.201  34.226  20.666  1.00  0.00     0.041 A 
ATOM      2  C   UNL     1      50.069  33.428  19.866  1.00  0.00     0.029 A 
ATOM      3  C   UNL     1      52.101  32.861  18.703  1.00  0.00     0.029 A 
ATOM      4  C   UNL     1      50.825  34.162  20.789  1.00  0.00     0.028 A 
ATOM      5  C   UNL     1      52.843  33.593  19.625  1.00  0.00     0.028 A 
ATOM      6  C   UNL     1      50.718  32.772  18.826  1.00  0.00     0.049 A 
ENDROOT
BRANCH   1   7
ATOM      7  N   UNL     1      52.923  35.029  21.635  1.00  0.00    -0.325 N 
ATOM      8  C   UNL     1      52.889  36.456  21.682  1.00  0.00     0.239 C 
ATOM      9  O   UNL     1      52.294  37.159  20.895  1.00  0.00    -0.274 OA
ATOM     10  H   UNL     1      53.498  34.538  22.334  1.00  0.00     0.169 HD
BRANCH   8  11
ATOM     11  C   UNL     1      53.764  37.029  22.796  1.00  0.00     0.194 C 
BRANCH  11  12
ATOM     12  C   UNL     1      53.632  36.166  24.033  1.00  0.00     0.029 C 
BRANCH  12  13
ATOM     13  C   UNL     1      53.208  36.870  25.302  1.00  0.00    -0.016 C 
ATOM     14  C   UNL     1      52.474  38.153  24.910  1.00  0.00     0.007 C 
ATOM     15  C   UNL     1      54.393  37.191  26.199  1.00  0.00     0.007 C 
ENDBRANCH  12  13
ENDBRANCH  11  12
BRANCH  11  16
ATOM     16  P   UNL     1      55.494  37.132  22.149  1.00  0.00     0.337 P 
ATOM     17  O   UNL     1      55.814  38.482  21.545  1.00  0.00    -0.260 OA
BRANCH  16  18
ATOM     18  O   UNL     1      56.391  36.754  23.349  1.00  0.00    -0.324 OA
ATOM     19  H   UNL     1      55.925  36.086  23.913  1.00  0.00     0.221 HD
ENDBRANCH  16  18
BRANCH  16  20
ATOM     20  O   UNL     1      55.662  36.097  21.058  1.00  0.00    -0.324 OA
ATOM     21  H   UNL     1      56.484  36.292  20.542  1.00  0.00     0.221 HD
ENDBRANCH  16  20
ENDBRANCH  11  16
ENDBRANCH   8  11
ENDBRANCH   1   7
BRANCH   6  22
ATOM     22  N   UNL     1      49.991  32.002  17.825  1.00  0.00    -0.280 N 
ATOM     23  H   UNL     1      49.223  32.468  17.321  1.00  0.00     0.180 HD
BRANCH  22  24
ATOM     24  S   UNL     1      50.333  30.378  17.436  1.00  0.00     0.261 S 
ATOM     25  O   UNL     1      51.368  30.207  16.406  1.00  0.00    -0.201 OA
ATOM     26  O   UNL     1      50.854  29.612  18.577  1.00  0.00    -0.201 OA
BRANCH  24  27
ATOM     27  C   UNL     1      48.740  29.749  16.868  1.00  0.00     0.089 A 
ATOM     28  C   UNL     1      48.579  28.383  16.770  1.00  0.00     0.024 A 
ATOM     29  C   UNL     1      47.711  30.625  16.580  1.00  0.00     0.044 A 
ATOM     30  C   UNL     1      47.368  27.878  16.357  1.00  0.00     0.023 A 
ATOM     31  C   UNL     1      46.492  30.123  16.168  1.00  0.00     0.061 A 
ATOM     32  C   UNL     1      46.328  28.741  16.061  1.00  0.00     0.059 A 
ATOM     33  Cl  UNL     1      45.189  31.293  15.800  1.00  0.00    -0.083 Cl
ATOM     34  Cl  UNL     1      44.800  27.993  15.539  1.00  0.00    -0.083 Cl
ENDBRANCH  24  27
ENDBRANCH  22  24
ENDBRANCH   6  22
TORSDOF 10
ENDMDL
MODEL 14
REMARK VINA RESULT:    -7.579      4.607     10.004
REMARK INTER + INTRA:         -12.791
REMARK INTER:                 -11.672
REMARK INTRA:                  -1.120
REMARK UNBOUND:                -1.225
REMARK SMILES CC(C)C[C@H](C(=O)Nc1ccc(NS(=O)(=O)c2ccc(Cl)c(Cl)c2)cc1)P(=O)(O)O
REMARK SMILES IDX 9 1 11 2 25 3 10 4 26 5 12 6 8 7 6 8 7 9 5 11 4 12 2 13 1 14
REMARK SMILES IDX 3 15 27 16 28 17 29 18 30 20 13 22 14 24 16 25 15 26 17 27
REMARK SMILES IDX 18 28 24 29 19 30 22 31 20 32 23 33 21 34
REMARK H PARENT 8 10 29 19 30 21 13 23
ROOT
ATOM      1  C   UNL     1      50.455  33.104  19.000  1.00  0.00     0.041 A 
ATOM      2  C   UNL     1      50.616  34.246  21.119  1.00  0.00     0.029 A 
ATOM      3  C   UNL     1      52.588  33.840  19.797  1.00  0.00     0.029 A 
ATOM      4  C   UNL     1      49.849  33.605  20.137  1.00  0.00     0.028 A 
ATOM      5  C   UNL     1      51.817  33.205  18.828  1.00  0.00     0.028 A 
ATOM      6  C   UNL     1      51.990  34.366  20.937  1.00  0.00     0.049 A 
ENDROOT
BRANCH   1   7
ATOM      7  N   UNL     1      49.610  32.424  18.036  1.00  0.00    -0.325 N 
ATOM      8  C   UNL     1      48.622  33.072  17.235  1.00  0.00     0.239 C 
ATOM      9  O   UNL     1      48.344  34.250  17.300  1.00  0.00    -0.274 OA
ATOM     10  H   UNL     1      49.731  31.407  17.922  1.00  0.00     0.169 HD
BRANCH   8  11
ATOM     11  C   UNL     1      47.872  32.100  16.325  1.00  0.00     0.194 C 
BRANCH  11  12
ATOM     12  C   UNL     1      47.400  32.833  15.088  1.00  0.00     0.029 C 
BRANCH  12  13
ATOM     13  C   UNL     1      45.904  32.940  14.899  1.00  0.00    -0.016 C 
ATOM     14  C   UNL     1      45.502  34.401  15.106  1.00  0.00     0.007 C 
ATOM     15  C   UNL     1      45.143  32.040  15.860  1.00  0.00     0.007 C 
ENDBRANCH  12  13
ENDBRANCH  11  12
BRANCH  11  16
ATOM     16  P   UNL     1      49.010  30.689  15.958  1.00  0.00     0.337 P 
ATOM     17  O   UNL     1      48.515  29.816  14.825  1.00  0.00    -0.260 OA
BRANCH  16  18
ATOM     18  O   UNL     1      50.383  31.345  15.690  1.00  0.00    -0.324 OA
ATOM     19  H   UNL     1      50.339  31.873  14.853  1.00  0.00     0.221 HD
ENDBRANCH  16  18
BRANCH  16  20
ATOM     20  O   UNL     1      49.108  29.816  17.191  1.00  0.00    -0.324 OA
ATOM     21  H   UNL     1      48.961  30.368  17.999  1.00  0.00     0.221 HD
ENDBRANCH  16  20
ENDBRANCH  11  16
ENDBRANCH   8  11
ENDBRANCH   1   7
BRANCH   6  22
ATOM     22  N   UNL     1      52.847  35.009  21.924  1.00  0.00    -0.280 N 
ATOM     23  H   UNL     1      53.089  34.478  22.773  1.00  0.00     0.180 HD
BRANCH  22  24
ATOM     24  S   UNL     1      53.472  36.586  21.763  1.00  0.00     0.261 S 
ATOM     25  O   UNL     1      54.691  36.673  20.945  1.00  0.00    -0.201 OA
ATOM     26  O   UNL     1      52.543  37.506  21.092  1.00  0.00    -0.201 OA
BRANCH  24  27
ATOM     27  C   UNL     1      53.797  37.075  23.468  1.00  0.00     0.089 A 
ATOM     28  C   UNL     1      54.976  36.658  24.050  1.00  0.00     0.024 A 
ATOM     29  C   UNL     1      52.896  37.876  24.144  1.00  0.00     0.044 A 
ATOM     30  C   UNL     1      55.255  37.032  25.345  1.00  0.00     0.023 A 
ATOM     31  C   UNL     1      53.174  38.258  25.442  1.00  0.00     0.061 A 
ATOM     32  C   UNL     1      54.362  37.831  26.037  1.00  0.00     0.059 A 
ATOM     33  Cl  UNL     1      51.978  39.290  26.282  1.00  0.00    -0.083 Cl
ATOM     34  Cl  UNL     1      54.814  38.266  27.702  1.00  0.00    -0.083 Cl
ENDBRANCH  24  27
ENDBRANCH  22  24
ENDBRANCH   6  22
TORSDOF 10
ENDMDL
MODEL 15
REMARK VINA RESULT:    -7.386      5.107      9.904
REMARK INTER + INTRA:         -12.498
REMARK INTER:                 -11.077
REMARK INTRA:                  -1.421
REMARK UNBOUND:                -1.225
REMARK SMILES CC(C)C[C@H](C(=O)Nc1ccc(NS(=O)(=O)c2ccc(Cl)c(Cl)c2)cc1)P(=O)(O)O
REMARK SMILES IDX 9 1 11 2 25 3 10 4 26 5 12 6 8 7 6 8 7 9 5 11 4 12 2 13 1 14
REMARK SMILES IDX 3 15 27 16 28 17 29 18 30 20 13 22 14 24 16 25 15 26 17 27
REMARK SMILES IDX 18 28 24 29 19 30 22 31 20 32 23 33 21 34
REMARK H PARENT 8 10 29 19 30 21 13 23
ROOT
ATOM      1  C   UNL     1      48.253  32.839  17.674  1.00  0.00     0.041 A 
ATOM      2  C   UNL     1      50.254  31.661  18.326  1.00  0.00     0.029 A 
ATOM      3  C   UNL     1      49.951  33.976  18.918  1.00  0.00     0.029 A 
ATOM      4  C   UNL     1      49.011  31.682  17.682  1.00  0.00     0.028 A 
ATOM      5  C   UNL     1      48.717  33.987  18.275  1.00  0.00     0.028 A 
ATOM      6  C   UNL     1      50.716  32.815  18.951  1.00  0.00     0.049 A 
ENDROOT
BRANCH   1   7
ATOM      7  N   UNL     1      46.989  32.805  16.962  1.00  0.00    -0.325 N 
ATOM      8  C   UNL     1      46.868  32.755  15.540  1.00  0.00     0.239 C 
ATOM      9  O   UNL     1      47.801  32.781  14.767  1.00  0.00    -0.274 OA
ATOM     10  H   UNL     1      46.122  32.819  17.518  1.00  0.00     0.169 HD
BRANCH   8  11
ATOM     11  C   UNL     1      45.413  32.750  15.073  1.00  0.00     0.194 C 
BRANCH  11  12
ATOM     12  C   UNL     1      44.755  31.452  15.492  1.00  0.00     0.029 C 
BRANCH  12  13
ATOM     13  C   UNL     1      45.518  30.183  15.185  1.00  0.00    -0.016 C 
ATOM     14  C   UNL     1      44.726  29.394  14.141  1.00  0.00     0.007 C 
ATOM     15  C   UNL     1      45.744  29.339  16.429  1.00  0.00     0.007 C 
ENDBRANCH  12  13
ENDBRANCH  11  12
BRANCH  11  16
ATOM     16  P   UNL     1      44.596  34.252  15.778  1.00  0.00     0.337 P 
ATOM     17  O   UNL     1      43.686  34.944  14.787  1.00  0.00    -0.260 OA
BRANCH  16  18
ATOM     18  O   UNL     1      43.874  33.753  17.049  1.00  0.00    -0.324 OA
ATOM     19  H   UNL     1      44.530  33.654  17.784  1.00  0.00     0.221 HD
ENDBRANCH  16  18
BRANCH  16  20
ATOM     20  O   UNL     1      45.670  35.244  16.173  1.00  0.00    -0.324 OA
ATOM     21  H   UNL     1      46.140  34.917  16.980  1.00  0.00     0.221 HD
ENDBRANCH  16  20
ENDBRANCH  11  16
ENDBRANCH   8  11
ENDBRANCH   1   7
BRANCH   6  22
ATOM     22  N   UNL     1      52.006  32.864  19.628  1.00  0.00    -0.280 N 
ATOM     23  H   UNL     1      52.127  32.296  20.478  1.00  0.00     0.180 HD
BRANCH  22  24
ATOM     24  S   UNL     1      53.325  33.805  19.099  1.00  0.00     0.261 S 
ATOM     25  O   UNL     1      54.579  33.054  18.940  1.00  0.00    -0.201 OA
ATOM     26  O   UNL     1      53.111  34.400  17.772  1.00  0.00    -0.201 OA
BRANCH  24  27
ATOM     27  C   UNL     1      53.477  35.058  20.388  1.00  0.00     0.089 A 
ATOM     28  C   UNL     1      52.371  35.325  21.168  1.00  0.00     0.024 A 
ATOM     29  C   UNL     1      54.685  35.695  20.597  1.00  0.00     0.044 A 
ATOM     30  C   UNL     1      52.467  36.264  22.169  1.00  0.00     0.023 A 
ATOM     31  C   UNL     1      54.788  36.635  21.603  1.00  0.00     0.061 A 
ATOM     32  C   UNL     1      53.668  36.913  22.390  1.00  0.00     0.059 A 
ATOM     33  Cl  UNL     1      56.368  37.440  21.837  1.00  0.00    -0.083 Cl
ATOM     34  Cl  UNL     1      53.693  38.106  23.710  1.00  0.00    -0.083 Cl
ENDBRANCH  24  27
ENDBRANCH  22  24
ENDBRANCH   6  22
TORSDOF 10
ENDMDL
MODEL 16
REMARK VINA RESULT:    -7.383      5.351      9.985
REMARK INTER + INTRA:         -12.493
REMARK INTER:                 -11.097
REMARK INTRA:                  -1.396
REMARK UNBOUND:                -1.225
REMARK SMILES CC(C)C[C@H](C(=O)Nc1ccc(NS(=O)(=O)c2ccc(Cl)c(Cl)c2)cc1)P(=O)(O)O
REMARK SMILES IDX 9 1 11 2 25 3 10 4 26 5 12 6 8 7 6 8 7 9 5 11 4 12 2 13 1 14
REMARK SMILES IDX 3 15 27 16 28 17 29 18 30 20 13 22 14 24 16 25 15 26 17 27
REMARK SMILES IDX 18 28 24 29 19 30 22 31 20 32 23 33 21 34
REMARK H PARENT 8 10 29 19 30 21 13 23
ROOT
ATOM      1  C   UNL     1      50.367  33.278  18.356  1.00  0.00     0.041 A 
ATOM      2  C   UNL     1      52.617  34.014  18.816  1.00  0.00     0.029 A 
ATOM      3  C   UNL     1      51.009  33.814  20.598  1.00  0.00     0.029 A 
ATOM      4  C   UNL     1      51.636  33.593  17.909  1.00  0.00     0.028 A 
ATOM      5  C   UNL     1      50.042  33.396  19.689  1.00  0.00     0.028 A 
ATOM      6  C   UNL     1      52.296  34.116  20.166  1.00  0.00     0.049 A 
ENDROOT
BRANCH   1   7
ATOM      7  N   UNL     1      49.387  32.878  17.363  1.00  0.00    -0.325 N 
ATOM      8  C   UNL     1      48.258  33.666  16.985  1.00  0.00     0.239 C 
ATOM      9  O   UNL     1      47.964  34.733  17.480  1.00  0.00    -0.274 OA
ATOM     10  H   UNL     1      49.514  31.966  16.901  1.00  0.00     0.169 HD
BRANCH   8  11
ATOM     11  C   UNL     1      47.389  32.982  15.931  1.00  0.00     0.194 C 
BRANCH  11  12
ATOM     12  C   UNL     1      47.399  31.487  16.165  1.00  0.00     0.029 C 
BRANCH  12  13
ATOM     13  C   UNL     1      47.733  30.622  14.970  1.00  0.00    -0.016 C 
ATOM     14  C   UNL     1      48.688  29.521  15.432  1.00  0.00     0.007 C 
ATOM     15  C   UNL     1      48.357  31.427  13.841  1.00  0.00     0.007 C 
ENDBRANCH  12  13
ENDBRANCH  11  12
BRANCH  11  16
ATOM     16  P   UNL     1      45.701  33.733  16.029  1.00  0.00     0.337 P 
ATOM     17  O   UNL     1      44.661  32.936  15.271  1.00  0.00    -0.260 OA
BRANCH  16  18
ATOM     18  O   UNL     1      45.411  33.864  17.540  1.00  0.00    -0.324 OA
ATOM     19  H   UNL     1      45.962  33.211  18.041  1.00  0.00     0.221 HD
ENDBRANCH  16  18
BRANCH  16  20
ATOM     20  O   UNL     1      45.751  35.113  15.410  1.00  0.00    -0.324 OA
ATOM     21  H   UNL     1      45.344  35.768  16.031  1.00  0.00     0.221 HD
ENDBRANCH  16  20
ENDBRANCH  11  16
ENDBRANCH   8  11
ENDBRANCH   1   7
BRANCH   6  22
ATOM     22  N   UNL     1      53.265  34.561  21.159  1.00  0.00    -0.280 N 
ATOM     23  H   UNL     1      53.915  33.862  21.547  1.00  0.00     0.180 HD
BRANCH  22  24
ATOM     24  S   UNL     1      53.389  36.165  21.720  1.00  0.00     0.261 S 
ATOM     25  O   UNL     1      52.392  37.084  21.151  1.00  0.00    -0.201 OA
ATOM     26  O   UNL     1      53.176  36.284  23.170  1.00  0.00    -0.201 OA
BRANCH  24  27
ATOM     27  C   UNL     1      55.061  36.640  21.239  1.00  0.00     0.089 A 
ATOM     28  C   UNL     1      55.620  37.748  21.840  1.00  0.00     0.024 A 
ATOM     29  C   UNL     1      55.760  35.880  20.321  1.00  0.00     0.044 A 
ATOM     30  C   UNL     1      56.901  38.120  21.503  1.00  0.00     0.023 A 
ATOM     31  C   UNL     1      57.048  36.247  19.982  1.00  0.00     0.061 A 
ATOM     32  C   UNL     1      57.614  37.373  20.583  1.00  0.00     0.059 A 
ATOM     33  Cl  UNL     1      57.915  35.240  18.785  1.00  0.00    -0.083 Cl
ATOM     34  Cl  UNL     1      59.264  37.931  20.216  1.00  0.00    -0.083 Cl
ENDBRANCH  24  27
ENDBRANCH  22  24
ENDBRANCH   6  22
TORSDOF 10
ENDMDL
MODEL 17
REMARK VINA RESULT:    -7.379      8.515     12.257
REMARK INTER + INTRA:         -12.486
REMARK INTER:                 -11.367
REMARK INTRA:                  -1.119
REMARK UNBOUND:                -1.225
REMARK SMILES CC(C)C[C@H](C(=O)Nc1ccc(NS(=O)(=O)c2ccc(Cl)c(Cl)c2)cc1)P(=O)(O)O
REMARK SMILES IDX 9 1 11 2 25 3 10 4 26 5 12 6 8 7 6 8 7 9 5 11 4 12 2 13 1 14
REMARK SMILES IDX 3 15 27 16 28 17 29 18 30 20 13 22 14 24 16 25 15 26 17 27
REMARK SMILES IDX 18 28 24 29 19 30 22 31 20 32 23 33 21 34
REMARK H PARENT 8 10 29 19 30 21 13 23
ROOT
ATOM      1  C   UNL     1      57.263  37.235  21.698  1.00  0.00     0.041 A 
ATOM      2  C   UNL     1      58.536  38.259  19.923  1.00  0.00     0.029 A 
ATOM      3  C   UNL     1      59.507  37.959  22.107  1.00  0.00     0.029 A 
ATOM      4  C   UNL     1      57.351  37.677  20.391  1.00  0.00     0.028 A 
ATOM      5  C   UNL     1      58.325  37.382  22.562  1.00  0.00     0.028 A 
ATOM      6  C   UNL     1      59.617  38.391  20.789  1.00  0.00     0.049 A 
ENDROOT
BRANCH   1   7
ATOM      7  N   UNL     1      55.998  36.670  22.130  1.00  0.00    -0.325 N 
ATOM      8  C   UNL     1      54.815  37.433  22.361  1.00  0.00     0.239 C 
ATOM      9  O   UNL     1      54.742  38.640  22.269  1.00  0.00    -0.274 OA
ATOM     10  H   UNL     1      55.952  35.652  22.280  1.00  0.00     0.169 HD
BRANCH   8  11
ATOM     11  C   UNL     1      53.641  36.573  22.829  1.00  0.00     0.194 C 
BRANCH  11  12
ATOM     12  C   UNL     1      52.659  37.436  23.592  1.00  0.00     0.029 C 
BRANCH  12  13
ATOM     13  C   UNL     1      52.718  37.349  25.100  1.00  0.00    -0.016 C 
ATOM     14  C   UNL     1      53.132  38.720  25.638  1.00  0.00     0.007 C 
ATOM     15  C   UNL     1      53.690  36.278  25.571  1.00  0.00     0.007 C 
ENDBRANCH  12  13
ENDBRANCH  11  12
BRANCH  11  16
ATOM     16  P   UNL     1      52.910  35.767  21.333  1.00  0.00     0.337 P 
ATOM     17  O   UNL     1      53.959  35.196  20.404  1.00  0.00    -0.260 OA
BRANCH  16  18
ATOM     18  O   UNL     1      51.925  34.715  21.889  1.00  0.00    -0.324 OA
ATOM     19  H   UNL     1      51.014  35.101  21.925  1.00  0.00     0.221 HD
ENDBRANCH  16  18
BRANCH  16  20
ATOM     20  O   UNL     1      52.136  36.810  20.555  1.00  0.00    -0.324 OA
ATOM     21  H   UNL     1      51.837  37.526  21.169  1.00  0.00     0.221 HD
ENDBRANCH  16  20
ENDBRANCH  11  16
ENDBRANCH   8  11
ENDBRANCH   1   7
BRANCH   6  22
ATOM     22  N   UNL     1      60.873  38.999  20.371  1.00  0.00    -0.280 N 
ATOM     23  H   UNL     1      60.835  39.925  19.920  1.00  0.00     0.180 HD
BRANCH  22  24
ATOM     24  S   UNL     1      62.401  38.275  20.582  1.00  0.00     0.261 S 
ATOM     25  O   UNL     1      62.350  36.868  21.007  1.00  0.00    -0.201 OA
ATOM     26  O   UNL     1      63.191  38.231  19.343  1.00  0.00    -0.201 OA
BRANCH  24  27
ATOM     27  C   UNL     1      63.174  39.308  21.842  1.00  0.00     0.089 A 
ATOM     28  C   UNL     1      64.466  39.013  22.221  1.00  0.00     0.024 A 
ATOM     29  C   UNL     1      62.488  40.383  22.374  1.00  0.00     0.044 A 
ATOM     30  C   UNL     1      65.085  39.797  23.168  1.00  0.00     0.023 A 
ATOM     31  C   UNL     1      63.105  41.176  23.322  1.00  0.00     0.061 A 
ATOM     32  C   UNL     1      64.411  40.875  23.713  1.00  0.00     0.059 A 
ATOM     33  Cl  UNL     1      62.180  42.554  23.989  1.00  0.00    -0.083 Cl
ATOM     34  Cl  UNL     1      65.295  41.831  24.926  1.00  0.00    -0.083 Cl
ENDBRANCH  24  27
ENDBRANCH  22  24
ENDBRANCH   6  22
TORSDOF 10
ENDMDL
MODEL 18
REMARK VINA RESULT:    -7.363      4.999     10.038
REMARK INTER + INTRA:         -12.462
REMARK INTER:                 -11.022
REMARK INTRA:                  -1.440
REMARK UNBOUND:                -1.225
REMARK SMILES CC(C)C[C@H](C(=O)Nc1ccc(NS(=O)(=O)c2ccc(Cl)c(Cl)c2)cc1)P(=O)(O)O
REMARK SMILES IDX 9 1 11 2 25 3 10 4 26 5 12 6 8 7 6 8 7 9 5 11 4 12 2 13 1 14
REMARK SMILES IDX 3 15 27 16 28 17 29 18 30 20 13 22 14 24 16 25 15 26 17 27
REMARK SMILES IDX 18 28 24 29 19 30 22 31 20 32 23 33 21 34
REMARK H PARENT 8 10 29 19 30 21 13 23
ROOT
ATOM      1  C   UNL     1      48.733  32.156  18.113  1.00  0.00     0.041 A 
ATOM      2  C   UNL     1      49.949  33.398  19.785  1.00  0.00     0.029 A 
ATOM      3  C   UNL     1      51.089  31.824  18.362  1.00  0.00     0.029 A 
ATOM      4  C   UNL     1      48.747  33.082  19.140  1.00  0.00     0.028 A 
ATOM      5  C   UNL     1      49.889  31.517  17.727  1.00  0.00     0.028 A 
ATOM      6  C   UNL     1      51.123  32.767  19.383  1.00  0.00     0.049 A 
ENDROOT
BRANCH   1   7
ATOM      7  N   UNL     1      47.450  31.849  17.507  1.00  0.00    -0.325 N 
ATOM      8  C   UNL     1      46.867  32.596  16.439  1.00  0.00     0.239 C 
ATOM      9  O   UNL     1      47.350  33.594  15.950  1.00  0.00    -0.274 OA
ATOM     10  H   UNL     1      46.927  31.039  17.870  1.00  0.00     0.169 HD
BRANCH   8  11
ATOM     11  C   UNL     1      45.502  32.053  16.018  1.00  0.00     0.194 C 
BRANCH  11  12
ATOM     12  C   UNL     1      45.040  32.770  14.768  1.00  0.00     0.029 C 
BRANCH  12  13
ATOM     13  C   UNL     1      43.750  33.551  14.879  1.00  0.00    -0.016 C 
ATOM     14  C   UNL     1      43.578  34.368  13.598  1.00  0.00     0.007 C 
ATOM     15  C   UNL     1      43.739  34.463  16.096  1.00  0.00     0.007 C 
ENDBRANCH  12  13
ENDBRANCH  11  12
BRANCH  11  16
ATOM     16  P   UNL     1      45.673  30.224  15.799  1.00  0.00     0.337 P 
ATOM     17  O   UNL     1      44.508  29.612  15.052  1.00  0.00    -0.260 OA
BRANCH  16  18
ATOM     18  O   UNL     1      47.036  30.033  15.097  1.00  0.00    -0.324 OA
ATOM     19  H   UNL     1      47.542  30.885  15.121  1.00  0.00     0.221 HD
ENDBRANCH  16  18
BRANCH  16  20
ATOM     20  O   UNL     1      45.723  29.578  17.166  1.00  0.00    -0.324 OA
ATOM     21  H   UNL     1      44.999  29.946  17.732  1.00  0.00     0.221 HD
ENDBRANCH  16  20
ENDBRANCH  11  16
ENDBRANCH   8  11
ENDBRANCH   1   7
BRANCH   6  22
ATOM     22  N   UNL     1      52.404  33.040  20.020  1.00  0.00    -0.280 N 
ATOM     23  H   UNL     1      52.629  32.535  20.890  1.00  0.00     0.180 HD
BRANCH  22  24
ATOM     24  S   UNL     1      53.554  34.144  19.417  1.00  0.00     0.261 S 
ATOM     25  O   UNL     1      54.874  33.556  19.147  1.00  0.00    -0.201 OA
ATOM     26  O   UNL     1      53.167  34.727  18.124  1.00  0.00    -0.201 OA
BRANCH  24  27
ATOM     27  C   UNL     1      53.651  35.388  20.719  1.00  0.00     0.089 A 
ATOM     28  C   UNL     1      52.545  35.576  21.521  1.00  0.00     0.024 A 
ATOM     29  C   UNL     1      54.821  36.096  20.917  1.00  0.00     0.044 A 
ATOM     30  C   UNL     1      52.599  36.507  22.533  1.00  0.00     0.023 A 
ATOM     31  C   UNL     1      54.882  37.028  21.934  1.00  0.00     0.061 A 
ATOM     32  C   UNL     1      53.762  37.227  22.743  1.00  0.00     0.059 A 
ATOM     33  Cl  UNL     1      56.414  37.927  22.151  1.00  0.00    -0.083 Cl
ATOM     34  Cl  UNL     1      53.736  38.403  24.078  1.00  0.00    -0.083 Cl
ENDBRANCH  24  27
ENDBRANCH  22  24
ENDBRANCH   6  22
TORSDOF 10
ENDMDL
MODEL 19
REMARK VINA RESULT:    -7.323      3.261      4.050
REMARK INTER + INTRA:         -12.401
REMARK INTER:                 -11.087
REMARK INTRA:                  -1.314
REMARK UNBOUND:                -1.225
REMARK SMILES CC(C)C[C@H](C(=O)Nc1ccc(NS(=O)(=O)c2ccc(Cl)c(Cl)c2)cc1)P(=O)(O)O
REMARK SMILES IDX 9 1 11 2 25 3 10 4 26 5 12 6 8 7 6 8 7 9 5 11 4 12 2 13 1 14
REMARK SMILES IDX 3 15 27 16 28 17 29 18 30 20 13 22 14 24 16 25 15 26 17 27
REMARK SMILES IDX 18 28 24 29 19 30 22 31 20 32 23 33 21 34
REMARK H PARENT 8 10 29 19 30 21 13 23
ROOT
ATOM      1  C   UNL     1      52.407  34.682  20.616  1.00  0.00     0.041 A 
ATOM      2  C   UNL     1      50.296  33.770  19.887  1.00  0.00     0.029 A 
ATOM      3  C   UNL     1      52.204  33.760  18.417  1.00  0.00     0.029 A 
ATOM      4  C   UNL     1      51.078  34.395  20.867  1.00  0.00     0.028 A 
ATOM      5  C   UNL     1      52.973  34.381  19.397  1.00  0.00     0.028 A 
ATOM      6  C   UNL     1      50.871  33.448  18.662  1.00  0.00     0.049 A 
ENDROOT
BRANCH   1   7
ATOM      7  N   UNL     1      53.155  35.358  21.660  1.00  0.00    -0.325 N 
ATOM      8  C   UNL     1      53.096  36.763  21.909  1.00  0.00     0.239 C 
ATOM      9  O   UNL     1      52.455  37.554  21.252  1.00  0.00    -0.274 OA
ATOM     10  H   UNL     1      53.768  34.788  22.260  1.00  0.00     0.169 HD
BRANCH   8  11
ATOM     11  C   UNL     1      54.006  37.196  23.058  1.00  0.00     0.194 C 
BRANCH  11  12
ATOM     12  C   UNL     1      53.776  36.291  24.249  1.00  0.00     0.029 C 
BRANCH  12  13
ATOM     13  C   UNL     1      53.338  36.965  25.530  1.00  0.00    -0.016 C 
ATOM     14  C   UNL     1      52.516  38.200  25.160  1.00  0.00     0.007 C 
ATOM     15  C   UNL     1      54.522  37.356  26.401  1.00  0.00     0.007 C 
ENDBRANCH  12  13
ENDBRANCH  11  12
BRANCH  11  16
ATOM     16  P   UNL     1      55.746  37.164  22.432  1.00  0.00     0.337 P 
ATOM     17  O   UNL     1      56.164  38.471  21.796  1.00  0.00    -0.260 OA
BRANCH  16  18
ATOM     18  O   UNL     1      56.601  36.761  23.654  1.00  0.00    -0.324 OA
ATOM     19  H   UNL     1      57.229  37.494  23.875  1.00  0.00     0.221 HD
ENDBRANCH  16  18
BRANCH  16  20
ATOM     20  O   UNL     1      55.857  36.090  21.372  1.00  0.00    -0.324 OA
ATOM     21  H   UNL     1      55.307  36.341  20.588  1.00  0.00     0.221 HD
ENDBRANCH  16  20
ENDBRANCH  11  16
ENDBRANCH   8  11
ENDBRANCH   1   7
BRANCH   6  22
ATOM     22  N   UNL     1      50.111  32.810  17.595  1.00  0.00    -0.280 N 
ATOM     23  H   UNL     1      49.533  33.409  16.989  1.00  0.00     0.180 HD
BRANCH  22  24
ATOM     24  S   UNL     1      50.119  31.133  17.290  1.00  0.00     0.261 S 
ATOM     25  O   UNL     1      50.455  30.306  18.458  1.00  0.00    -0.201 OA
ATOM     26  O   UNL     1      48.807  30.620  16.872  1.00  0.00    -0.201 OA
BRANCH  24  27
ATOM     27  C   UNL     1      51.360  30.959  15.992  1.00  0.00     0.089 A 
ATOM     28  C   UNL     1      51.927  29.717  15.798  1.00  0.00     0.024 A 
ATOM     29  C   UNL     1      51.691  32.041  15.200  1.00  0.00     0.044 A 
ATOM     30  C   UNL     1      52.863  29.554  14.802  1.00  0.00     0.023 A 
ATOM     31  C   UNL     1      52.627  31.883  14.196  1.00  0.00     0.061 A 
ATOM     32  C   UNL     1      53.209  30.629  14.002  1.00  0.00     0.059 A 
ATOM     33  Cl  UNL     1      53.032  33.311  13.198  1.00  0.00    -0.083 Cl
ATOM     34  Cl  UNL     1      54.423  30.318  12.740  1.00  0.00    -0.083 Cl
ENDBRANCH  24  27
ENDBRANCH  22  24
ENDBRANCH   6  22
TORSDOF 10
ENDMDL
