MODEL 1
REMARK VINA RESULT:    -8.484      0.000      0.000
REMARK INTER + INTRA:         -14.987
REMARK INTER:                 -13.444
REMARK INTRA:                  -1.543
REMARK UNBOUND:                -1.543
REMARK SMILES CC(C)C[C@H](C(=O)N[C@@H](Cc1ccccn1)C(=O)Nc1ccc(Cl)c(Cl)c1)P(=O)(O)O
REMARK SMILES IDX 8 1 6 2 7 3 9 5 17 6 19 7 18 8 20 10 27 11 21 12 25 13 22 14
REMARK SMILES IDX 23 15 26 16 24 17 10 18 11 19 12 20 16 21 13 22 15 23 14 24
REMARK SMILES IDX 5 25 4 26 2 27 1 28 3 29 28 30 29 31 31 32 30 34
REMARK H PARENT 8 4 19 9 31 33 30 35
ROOT
ATOM      1  N   UNL     1      53.324  35.188  21.919  1.00  0.00    -0.343 N 
ATOM      2  C   UNL     1      52.604  35.196  20.688  1.00  0.00     0.235 C 
ATOM      3  O   UNL     1      52.091  36.228  20.271  1.00  0.00    -0.274 OA
ATOM      4  H   UNL     1      53.781  34.332  22.266  1.00  0.00     0.164 HD
ENDROOT
BRANCH   1   5
ATOM      5  C   UNL     1      53.389  36.419  22.656  1.00  0.00     0.177 C 
BRANCH   5   6
ATOM      6  C   UNL     1      54.562  37.281  22.314  1.00  0.00     0.247 C 
ATOM      7  N   UNL     1      55.761  36.549  22.175  1.00  0.00    -0.324 N 
ATOM      8  O   UNL     1      54.547  38.465  22.175  1.00  0.00    -0.272 OA
ATOM      9  H   UNL     1      55.747  35.571  22.494  1.00  0.00     0.170 HD
BRANCH   7  10
ATOM     10  C   UNL     1      56.986  37.032  21.635  1.00  0.00     0.042 A 
ATOM     11  C   UNL     1      57.146  37.247  20.287  1.00  0.00     0.048 A 
ATOM     12  C   UNL     1      58.053  37.065  22.499  1.00  0.00     0.028 A 
ATOM     13  C   UNL     1      58.399  37.632  19.819  1.00  0.00     0.061 A 
ATOM     14  C   UNL     1      59.279  37.489  22.019  1.00  0.00     0.024 A 
ATOM     15  C   UNL     1      59.426  37.761  20.694  1.00  0.00     0.059 A 
ATOM     16  Cl  UNL     1      58.574  37.971  18.120  1.00  0.00    -0.083 Cl
ATOM     17  Cl  UNL     1      60.998  38.281  20.093  1.00  0.00    -0.083 Cl
ENDBRANCH   7  10
ENDBRANCH   5   6
BRANCH   5  18
ATOM     18  C   UNL     1      53.586  35.952  24.157  1.00  0.00     0.091 C 
BRANCH  18  19
ATOM     19  C   UNL     1      53.613  37.116  25.113  1.00  0.00     0.043 A 
ATOM     20  C   UNL     1      52.580  38.015  25.082  1.00  0.00     0.024 A 
ATOM     21  N   UNL     1      54.642  37.264  25.921  1.00  0.00    -0.261 NA
ATOM     22  C   UNL     1      52.616  39.138  25.939  1.00  0.00     0.003 A 
ATOM     23  C   UNL     1      54.708  38.302  26.740  1.00  0.00     0.111 A 
ATOM     24  C   UNL     1      53.709  39.257  26.775  1.00  0.00     0.020 A 
ENDBRANCH  18  19
ENDBRANCH   5  18
ENDBRANCH   1   5
BRANCH   2  25
ATOM     25  C   UNL     1      52.533  33.826  20.000  1.00  0.00     0.193 C 
BRANCH  25  26
ATOM     26  C   UNL     1      51.223  33.759  19.275  1.00  0.00     0.029 C 
BRANCH  26  27
ATOM     27  C   UNL     1      50.337  32.567  19.677  1.00  0.00    -0.016 C 
ATOM     28  C   UNL     1      48.876  32.875  19.314  1.00  0.00     0.007 C 
ATOM     29  C   UNL     1      50.772  31.237  19.046  1.00  0.00     0.007 C 
ENDBRANCH  26  27
ENDBRANCH  25  26
BRANCH  25  30
ATOM     30  P   UNL     1      53.947  33.448  18.972  1.00  0.00     0.337 P 
ATOM     31  O   UNL     1      55.089  34.296  19.373  1.00  0.00    -0.260 OA
BRANCH  30  32
ATOM     32  O   UNL     1      54.260  32.010  19.086  1.00  0.00    -0.324 OA
ATOM     33  H   UNL     1      54.493  31.796  20.024  1.00  0.00     0.221 HD
ENDBRANCH  30  32
BRANCH  30  34
ATOM     34  O   UNL     1      53.551  33.412  17.496  1.00  0.00    -0.324 OA
ATOM     35  H   UNL     1      54.311  33.722  16.943  1.00  0.00     0.221 HD
ENDBRANCH  30  34
ENDBRANCH  25  30
ENDBRANCH   2  25
TORSDOF 11
ENDMDL
MODEL 2
REMARK VINA RESULT:    -8.134      3.413      7.556
REMARK INTER + INTRA:         -14.433
REMARK INTER:                 -12.977
REMARK INTRA:                  -1.456
REMARK UNBOUND:                -1.543
REMARK SMILES CC(C)C[C@H](C(=O)N[C@@H](Cc1ccccn1)C(=O)Nc1ccc(Cl)c(Cl)c1)P(=O)(O)O
REMARK SMILES IDX 8 1 6 2 7 3 9 5 17 6 19 7 18 8 20 10 27 11 21 12 25 13 22 14
REMARK SMILES IDX 23 15 26 16 24 17 10 18 11 19 12 20 16 21 13 22 15 23 14 24
REMARK SMILES IDX 5 25 4 26 2 27 1 28 3 29 28 30 29 31 31 32 30 34
REMARK H PARENT 8 4 19 9 31 33 30 35
ROOT
ATOM      1  N   UNL     1      54.924  36.386  22.247  1.00  0.00    -0.343 N 
ATOM      2  C   UNL     1      54.179  37.489  22.758  1.00  0.00     0.235 C 
ATOM      3  O   UNL     1      53.694  38.321  21.999  1.00  0.00    -0.274 OA
ATOM      4  H   UNL     1      55.314  35.667  22.874  1.00  0.00     0.164 HD
ENDROOT
BRANCH   1   5
ATOM      5  C   UNL     1      55.109  36.314  20.824  1.00  0.00     0.177 C 
BRANCH   5   6
ATOM      6  C   UNL     1      54.469  35.127  20.178  1.00  0.00     0.247 C 
ATOM      7  N   UNL     1      53.073  35.078  20.378  1.00  0.00    -0.324 N 
ATOM      8  O   UNL     1      55.030  34.276  19.560  1.00  0.00    -0.272 OA
ATOM      9  H   UNL     1      52.680  35.727  21.074  1.00  0.00     0.170 HD
BRANCH   7  10
ATOM     10  C   UNL     1      52.154  34.219  19.710  1.00  0.00     0.042 A 
ATOM     11  C   UNL     1      52.341  33.841  18.402  1.00  0.00     0.048 A 
ATOM     12  C   UNL     1      50.977  33.968  20.370  1.00  0.00     0.028 A 
ATOM     13  C   UNL     1      51.356  33.075  17.785  1.00  0.00     0.061 A 
ATOM     14  C   UNL     1      50.031  33.171  19.751  1.00  0.00     0.024 A 
ATOM     15  C   UNL     1      50.239  32.744  18.476  1.00  0.00     0.059 A 
ATOM     16  Cl  UNL     1      51.633  32.541  16.151  1.00  0.00    -0.083 Cl
ATOM     17  Cl  UNL     1      49.016  31.745  17.695  1.00  0.00    -0.083 Cl
ENDBRANCH   7  10
ENDBRANCH   5   6
BRANCH   5  18
ATOM     18  C   UNL     1      56.674  36.141  20.654  1.00  0.00     0.091 C 
BRANCH  18  19
ATOM     19  C   UNL     1      57.346  37.428  20.252  1.00  0.00     0.043 A 
ATOM     20  C   UNL     1      58.004  37.477  19.052  1.00  0.00     0.024 A 
ATOM     21  N   UNL     1      57.322  38.453  21.077  1.00  0.00    -0.261 NA
ATOM     22  C   UNL     1      58.681  38.662  18.684  1.00  0.00     0.003 A 
ATOM     23  C   UNL     1      57.942  39.581  20.763  1.00  0.00     0.111 A 
ATOM     24  C   UNL     1      58.630  39.718  19.572  1.00  0.00     0.020 A 
ENDBRANCH  18  19
ENDBRANCH   5  18
ENDBRANCH   1   5
BRANCH   2  25
ATOM     25  C   UNL     1      54.084  37.520  24.290  1.00  0.00     0.193 C 
BRANCH  25  26
ATOM     26  C   UNL     1      52.831  38.262  24.644  1.00  0.00     0.029 C 
BRANCH  26  27
ATOM     27  C   UNL     1      53.048  39.449  25.598  1.00  0.00    -0.016 C 
ATOM     28  C   UNL     1      51.787  39.653  26.451  1.00  0.00     0.007 C 
ATOM     29  C   UNL     1      54.280  39.297  26.501  1.00  0.00     0.007 C 
ENDBRANCH  26  27
ENDBRANCH  25  26
BRANCH  25  30
ATOM     30  P   UNL     1      54.213  35.912  25.064  1.00  0.00     0.337 P 
ATOM     31  O   UNL     1      53.610  35.963  26.412  1.00  0.00    -0.260 OA
BRANCH  30  32
ATOM     32  O   UNL     1      53.561  34.906  24.205  1.00  0.00    -0.324 OA
ATOM     33  H   UNL     1      53.977  34.919  23.306  1.00  0.00     0.221 HD
ENDBRANCH  30  32
BRANCH  30  34
ATOM     34  O   UNL     1      55.629  35.354  24.922  1.00  0.00    -0.324 OA
ATOM     35  H   UNL     1      55.948  35.495  23.995  1.00  0.00     0.221 HD
ENDBRANCH  30  34
ENDBRANCH  25  30
ENDBRANCH   2  25
TORSDOF 11
ENDMDL
MODEL 3
REMARK VINA RESULT:    -8.080      1.812      2.455
REMARK INTER + INTRA:         -14.348
REMARK INTER:                 -12.812
REMARK INTRA:                  -1.535
REMARK UNBOUND:                -1.543
REMARK SMILES CC(C)C[C@H](C(=O)N[C@@H](Cc1ccccn1)C(=O)Nc1ccc(Cl)c(Cl)c1)P(=O)(O)O
REMARK SMILES IDX 8 1 6 2 7 3 9 5 17 6 19 7 18 8 20 10 27 11 21 12 25 13 22 14
REMARK SMILES IDX 23 15 26 16 24 17 10 18 11 19 12 20 16 21 13 22 15 23 14 24
REMARK SMILES IDX 5 25 4 26 2 27 1 28 3 29 28 30 29 31 31 32 30 34
REMARK H PARENT 8 4 19 9 31 33 30 35
ROOT
ATOM      1  N   UNL     1      53.014  34.965  21.270  1.00  0.00    -0.343 N 
ATOM      2  C   UNL     1      52.316  35.043  20.029  1.00  0.00     0.235 C 
ATOM      3  O   UNL     1      51.836  36.104  19.646  1.00  0.00    -0.274 OA
ATOM      4  H   UNL     1      53.442  34.084  21.589  1.00  0.00     0.164 HD
ENDROOT
BRANCH   1   5
ATOM      5  C   UNL     1      53.097  36.163  22.058  1.00  0.00     0.177 C 
BRANCH   5   6
ATOM      6  C   UNL     1      54.282  37.021  21.752  1.00  0.00     0.247 C 
ATOM      7  N   UNL     1      55.482  36.285  21.645  1.00  0.00    -0.324 N 
ATOM      8  O   UNL     1      54.276  38.205  21.615  1.00  0.00    -0.272 OA
ATOM      9  H   UNL     1      55.455  35.305  21.962  1.00  0.00     0.170 HD
BRANCH   7  10
ATOM     10  C   UNL     1      56.725  36.764  21.142  1.00  0.00     0.042 A 
ATOM     11  C   UNL     1      57.028  36.713  19.803  1.00  0.00     0.048 A 
ATOM     12  C   UNL     1      57.675  37.075  22.084  1.00  0.00     0.028 A 
ATOM     13  C   UNL     1      58.297  37.114  19.394  1.00  0.00     0.061 A 
ATOM     14  C   UNL     1      58.915  37.509  21.650  1.00  0.00     0.024 A 
ATOM     15  C   UNL     1      59.199  37.518  20.320  1.00  0.00     0.059 A 
ATOM     16  Cl  UNL     1      58.649  37.114  17.688  1.00  0.00    -0.083 Cl
ATOM     17  Cl  UNL     1      60.790  38.054  19.785  1.00  0.00    -0.083 Cl
ENDBRANCH   7  10
ENDBRANCH   5   6
BRANCH   5  18
ATOM     18  C   UNL     1      53.287  35.630  23.538  1.00  0.00     0.091 C 
BRANCH  18  19
ATOM     19  C   UNL     1      53.451  36.753  24.528  1.00  0.00     0.043 A 
ATOM     20  C   UNL     1      54.509  36.713  25.396  1.00  0.00     0.024 A 
ATOM     21  N   UNL     1      52.556  37.718  24.563  1.00  0.00    -0.261 NA
ATOM     22  C   UNL     1      54.648  37.735  26.363  1.00  0.00     0.003 A 
ATOM     23  C   UNL     1      52.657  38.694  25.453  1.00  0.00     0.111 A 
ATOM     24  C   UNL     1      53.693  38.732  26.367  1.00  0.00     0.020 A 
ENDBRANCH  18  19
ENDBRANCH   5  18
ENDBRANCH   1   5
BRANCH   2  25
ATOM     25  C   UNL     1      52.221  33.704  19.283  1.00  0.00     0.193 C 
BRANCH  25  26
ATOM     26  C   UNL     1      53.411  32.886  19.683  1.00  0.00     0.029 C 
BRANCH  26  27
ATOM     27  C   UNL     1      54.398  32.602  18.538  1.00  0.00    -0.016 C 
ATOM     28  C   UNL     1      54.150  31.186  17.994  1.00  0.00     0.007 C 
ATOM     29  C   UNL     1      54.330  33.628  17.398  1.00  0.00     0.007 C 
ENDBRANCH  26  27
ENDBRANCH  25  26
BRANCH  25  30
ATOM     30  P   UNL     1      50.660  32.857  19.493  1.00  0.00     0.337 P 
ATOM     31  O   UNL     1      50.870  31.398  19.381  1.00  0.00    -0.260 OA
BRANCH  30  32
ATOM     32  O   UNL     1      50.076  33.231  20.796  1.00  0.00    -0.324 OA
ATOM     33  H   UNL     1      49.267  32.685  20.964  1.00  0.00     0.221 HD
ENDBRANCH  30  32
BRANCH  30  34
ATOM     34  O   UNL     1      49.572  33.503  18.636  1.00  0.00    -0.324 OA
ATOM     35  H   UNL     1      49.363  32.913  17.868  1.00  0.00     0.221 HD
ENDBRANCH  30  34
ENDBRANCH  25  30
ENDBRANCH   2  25
TORSDOF 11
ENDMDL
MODEL 4
REMARK VINA RESULT:    -8.061      7.581     11.771
REMARK INTER + INTRA:         -14.317
REMARK INTER:                 -12.465
REMARK INTRA:                  -1.852
REMARK UNBOUND:                -1.543
REMARK SMILES CC(C)C[C@H](C(=O)N[C@@H](Cc1ccccn1)C(=O)Nc1ccc(Cl)c(Cl)c1)P(=O)(O)O
REMARK SMILES IDX 8 1 6 2 7 3 9 5 17 6 19 7 18 8 20 10 27 11 21 12 25 13 22 14
REMARK SMILES IDX 23 15 26 16 24 17 10 18 11 19 12 20 16 21 13 22 15 23 14 24
REMARK SMILES IDX 5 25 4 26 2 27 1 28 3 29 28 30 29 31 31 32 30 34
REMARK H PARENT 8 4 19 9 31 33 30 35
ROOT
ATOM      1  N   UNL     1      49.655  32.891  17.881  1.00  0.00    -0.343 N 
ATOM      2  C   UNL     1      49.973  32.992  19.268  1.00  0.00     0.235 C 
ATOM      3  O   UNL     1      49.097  32.892  20.119  1.00  0.00    -0.274 OA
ATOM      4  H   UNL     1      50.387  32.949  17.159  1.00  0.00     0.164 HD
ENDROOT
BRANCH   1   5
ATOM      5  C   UNL     1      48.275  32.705  17.531  1.00  0.00     0.177 C 
BRANCH   5   6
ATOM      6  C   UNL     1      48.019  31.539  16.632  1.00  0.00     0.247 C 
ATOM      7  N   UNL     1      46.757  30.944  16.848  1.00  0.00    -0.324 N 
ATOM      8  O   UNL     1      48.768  31.106  15.812  1.00  0.00    -0.272 OA
ATOM      9  H   UNL     1      46.244  31.237  17.691  1.00  0.00     0.170 HD
BRANCH   7  10
ATOM     10  C   UNL     1      46.125  29.978  16.014  1.00  0.00     0.042 A 
ATOM     11  C   UNL     1      45.358  30.348  14.936  1.00  0.00     0.048 A 
ATOM     12  C   UNL     1      46.149  28.683  16.470  1.00  0.00     0.028 A 
ATOM     13  C   UNL     1      44.695  29.355  14.220  1.00  0.00     0.061 A 
ATOM     14  C   UNL     1      45.517  27.708  15.719  1.00  0.00     0.024 A 
ATOM     15  C   UNL     1      44.805  28.063  14.615  1.00  0.00     0.059 A 
ATOM     16  Cl  UNL     1      43.782  29.824  12.813  1.00  0.00    -0.083 Cl
ATOM     17  Cl  UNL     1      43.989  26.812  13.681  1.00  0.00    -0.083 Cl
ENDBRANCH   7  10
ENDBRANCH   5   6
BRANCH   5  18
ATOM     18  C   UNL     1      47.914  34.008  16.706  1.00  0.00     0.091 C 
BRANCH  18  19
ATOM     19  C   UNL     1      46.502  33.975  16.182  1.00  0.00     0.043 A 
ATOM     20  C   UNL     1      46.302  34.069  14.830  1.00  0.00     0.024 A 
ATOM     21  N   UNL     1      45.500  33.900  17.032  1.00  0.00    -0.261 NA
ATOM     22  C   UNL     1      44.980  34.088  14.328  1.00  0.00     0.003 A 
ATOM     23  C   UNL     1      44.250  33.911  16.598  1.00  0.00     0.111 A 
ATOM     24  C   UNL     1      43.956  34.004  15.250  1.00  0.00     0.020 A 
ENDBRANCH  18  19
ENDBRANCH   5  18
ENDBRANCH   1   5
BRANCH   2  25
ATOM     25  C   UNL     1      51.460  33.253  19.548  1.00  0.00     0.193 C 
BRANCH  25  26
ATOM     26  C   UNL     1      52.203  33.009  18.270  1.00  0.00     0.029 C 
BRANCH  26  27
ATOM     27  C   UNL     1      53.100  31.760  18.287  1.00  0.00    -0.016 C 
ATOM     28  C   UNL     1      52.682  30.818  17.148  1.00  0.00     0.007 C 
ATOM     29  C   UNL     1      54.599  32.077  18.189  1.00  0.00     0.007 C 
ENDBRANCH  26  27
ENDBRANCH  25  26
BRANCH  25  30
ATOM     30  P   UNL     1      51.798  34.846  20.287  1.00  0.00     0.337 P 
ATOM     31  O   UNL     1      53.208  34.897  20.727  1.00  0.00    -0.260 OA
BRANCH  30  32
ATOM     32  O   UNL     1      51.485  35.910  19.313  1.00  0.00    -0.324 OA
ATOM     33  H   UNL     1      50.515  35.901  19.116  1.00  0.00     0.221 HD
ENDBRANCH  30  32
BRANCH  30  34
ATOM     34  O   UNL     1      50.709  35.220  21.292  1.00  0.00    -0.324 OA
ATOM     35  H   UNL     1      50.339  34.397  21.699  1.00  0.00     0.221 HD
ENDBRANCH  30  34
ENDBRANCH  25  30
ENDBRANCH   2  25
TORSDOF 11
ENDMDL
MODEL 5
REMARK VINA RESULT:    -7.847      3.822      6.903
REMARK INTER + INTRA:         -13.977
REMARK INTER:                 -12.665
REMARK INTRA:                  -1.312
REMARK UNBOUND:                -1.543
REMARK SMILES CC(C)C[C@H](C(=O)N[C@@H](Cc1ccccn1)C(=O)Nc1ccc(Cl)c(Cl)c1)P(=O)(O)O
REMARK SMILES IDX 8 1 6 2 7 3 9 5 17 6 19 7 18 8 20 10 27 11 21 12 25 13 22 14
REMARK SMILES IDX 23 15 26 16 24 17 10 18 11 19 12 20 16 21 13 22 15 23 14 24
REMARK SMILES IDX 5 25 4 26 2 27 1 28 3 29 28 30 29 31 31 32 30 34
REMARK H PARENT 8 4 19 9 31 33 30 35
ROOT
ATOM      1  N   UNL     1      54.706  36.127  21.183  1.00  0.00    -0.343 N 
ATOM      2  C   UNL     1      55.553  35.442  20.263  1.00  0.00     0.235 C 
ATOM      3  O   UNL     1      55.192  34.393  19.743  1.00  0.00    -0.274 OA
ATOM      4  H   UNL     1      54.990  37.023  21.607  1.00  0.00     0.164 HD
ENDROOT
BRANCH   1   5
ATOM      5  C   UNL     1      53.443  35.521  21.497  1.00  0.00     0.177 C 
BRANCH   5   6
ATOM      6  C   UNL     1      52.630  35.135  20.303  1.00  0.00     0.247 C 
ATOM      7  N   UNL     1      52.443  33.741  20.192  1.00  0.00    -0.324 N 
ATOM      8  O   UNL     1      52.175  35.881  19.492  1.00  0.00    -0.272 OA
ATOM      9  H   UNL     1      53.016  33.145  20.805  1.00  0.00     0.170 HD
BRANCH   7  10
ATOM     10  C   UNL     1      51.539  33.078  19.314  1.00  0.00     0.042 A 
ATOM     11  C   UNL     1      50.187  33.324  19.351  1.00  0.00     0.048 A 
ATOM     12  C   UNL     1      52.060  32.035  18.589  1.00  0.00     0.028 A 
ATOM     13  C   UNL     1      49.352  32.573  18.528  1.00  0.00     0.061 A 
ATOM     14  C   UNL     1      51.217  31.330  17.749  1.00  0.00     0.024 A 
ATOM     15  C   UNL     1      49.886  31.612  17.736  1.00  0.00     0.059 A 
ATOM     16  Cl  UNL     1      47.650  32.941  18.528  1.00  0.00    -0.083 Cl
ATOM     17  Cl  UNL     1      48.823  30.692  16.675  1.00  0.00    -0.083 Cl
ENDBRANCH   7  10
ENDBRANCH   5   6
BRANCH   5  18
ATOM     18  C   UNL     1      52.646  36.669  22.243  1.00  0.00     0.091 C 
BRANCH  18  19
ATOM     19  C   UNL     1      53.158  36.898  23.641  1.00  0.00     0.043 A 
ATOM     20  C   UNL     1      52.984  38.132  24.209  1.00  0.00     0.024 A 
ATOM     21  N   UNL     1      53.793  35.927  24.263  1.00  0.00    -0.261 NA
ATOM     22  C   UNL     1      53.501  38.376  25.502  1.00  0.00     0.003 A 
ATOM     23  C   UNL     1      54.288  36.119  25.476  1.00  0.00     0.111 A 
ATOM     24  C   UNL     1      54.158  37.333  26.124  1.00  0.00     0.020 A 
ENDBRANCH  18  19
ENDBRANCH   5  18
ENDBRANCH   1   5
BRANCH   2  25
ATOM     25  C   UNL     1      56.907  36.129  20.034  1.00  0.00     0.193 C 
BRANCH  25  26
ATOM     26  C   UNL     1      57.810  35.720  21.158  1.00  0.00     0.029 C 
BRANCH  26  27
ATOM     27  C   UNL     1      58.119  36.844  22.162  1.00  0.00    -0.016 C 
ATOM     28  C   UNL     1      57.721  38.196  21.550  1.00  0.00     0.007 C 
ATOM     29  C   UNL     1      57.435  36.657  23.524  1.00  0.00     0.007 C 
ENDBRANCH  26  27
ENDBRANCH  25  26
BRANCH  25  30
ATOM     30  P   UNL     1      57.605  35.850  18.410  1.00  0.00     0.337 P 
ATOM     31  O   UNL     1      57.826  37.148  17.738  1.00  0.00    -0.260 OA
BRANCH  30  32
ATOM     32  O   UNL     1      58.855  35.078  18.545  1.00  0.00    -0.324 OA
ATOM     33  H   UNL     1      59.591  35.686  18.810  1.00  0.00     0.221 HD
ENDBRANCH  30  32
BRANCH  30  34
ATOM     34  O   UNL     1      56.825  34.768  17.663  1.00  0.00    -0.324 OA
ATOM     35  H   UNL     1      56.504  34.088  18.308  1.00  0.00     0.221 HD
ENDBRANCH  30  34
ENDBRANCH  25  30
ENDBRANCH   2  25
TORSDOF 11
ENDMDL
MODEL 6
REMARK VINA RESULT:    -7.833      4.642      9.358
REMARK INTER + INTRA:         -13.955
REMARK INTER:                 -12.239
REMARK INTRA:                  -1.716
REMARK UNBOUND:                -1.543
REMARK SMILES CC(C)C[C@H](C(=O)N[C@@H](Cc1ccccn1)C(=O)Nc1ccc(Cl)c(Cl)c1)P(=O)(O)O
REMARK SMILES IDX 8 1 6 2 7 3 9 5 17 6 19 7 18 8 20 10 27 11 21 12 25 13 22 14
REMARK SMILES IDX 23 15 26 16 24 17 10 18 11 19 12 20 16 21 13 22 15 23 14 24
REMARK SMILES IDX 5 25 4 26 2 27 1 28 3 29 28 30 29 31 31 32 30 34
REMARK H PARENT 8 4 19 9 31 33 30 35
ROOT
ATOM      1  N   UNL     1      53.075  34.957  20.559  1.00  0.00    -0.343 N 
ATOM      2  C   UNL     1      54.376  35.540  20.581  1.00  0.00     0.235 C 
ATOM      3  O   UNL     1      55.157  35.361  19.653  1.00  0.00    -0.274 OA
ATOM      4  H   UNL     1      52.402  35.122  21.321  1.00  0.00     0.164 HD
ENDROOT
BRANCH   1   5
ATOM      5  C   UNL     1      52.739  34.132  19.433  1.00  0.00     0.177 C 
BRANCH   5   6
ATOM      6  C   UNL     1      51.271  33.925  19.236  1.00  0.00     0.247 C 
ATOM      7  N   UNL     1      50.920  33.720  17.885  1.00  0.00    -0.324 N 
ATOM      8  O   UNL     1      50.440  33.934  20.090  1.00  0.00    -0.272 OA
ATOM      9  H   UNL     1      51.647  33.914  17.182  1.00  0.00     0.170 HD
BRANCH   7  10
ATOM     10  C   UNL     1      49.660  33.270  17.398  1.00  0.00     0.042 A 
ATOM     11  C   UNL     1      48.598  34.129  17.245  1.00  0.00     0.048 A 
ATOM     12  C   UNL     1      49.505  31.910  17.298  1.00  0.00     0.028 A 
ATOM     13  C   UNL     1      47.370  33.605  16.852  1.00  0.00     0.061 A 
ATOM     14  C   UNL     1      48.286  31.415  16.868  1.00  0.00     0.024 A 
ATOM     15  C   UNL     1      47.248  32.269  16.656  1.00  0.00     0.059 A 
ATOM     16  Cl  UNL     1      46.049  34.709  16.591  1.00  0.00    -0.083 Cl
ATOM     17  Cl  UNL     1      45.698  31.622  16.127  1.00  0.00    -0.083 Cl
ENDBRANCH   7  10
ENDBRANCH   5   6
BRANCH   5  18
ATOM     18  C   UNL     1      53.356  32.720  19.800  1.00  0.00     0.091 C 
BRANCH  18  19
ATOM     19  C   UNL     1      53.710  31.920  18.574  1.00  0.00     0.043 A 
ATOM     20  C   UNL     1      54.893  32.188  17.936  1.00  0.00     0.024 A 
ATOM     21  N   UNL     1      52.863  31.020  18.122  1.00  0.00    -0.261 NA
ATOM     22  C   UNL     1      55.216  31.479  16.756  1.00  0.00     0.003 A 
ATOM     23  C   UNL     1      53.134  30.335  17.023  1.00  0.00     0.111 A 
ATOM     24  C   UNL     1      54.304  30.540  16.316  1.00  0.00     0.020 A 
ENDBRANCH  18  19
ENDBRANCH   5  18
ENDBRANCH   1   5
BRANCH   2  25
ATOM     25  C   UNL     1      54.672  36.354  21.849  1.00  0.00     0.193 C 
BRANCH  25  26
ATOM     26  C   UNL     1      55.912  37.154  21.586  1.00  0.00     0.029 C 
BRANCH  26  27
ATOM     27  C   UNL     1      57.148  36.680  22.368  1.00  0.00    -0.016 C 
ATOM     28  C   UNL     1      58.322  37.631  22.088  1.00  0.00     0.007 C 
ATOM     29  C   UNL     1      56.912  36.562  23.880  1.00  0.00     0.007 C 
ENDBRANCH  26  27
ENDBRANCH  25  26
BRANCH  25  30
ATOM     30  P   UNL     1      53.292  37.332  22.430  1.00  0.00     0.337 P 
ATOM     31  O   UNL     1      53.765  38.302  23.440  1.00  0.00    -0.260 OA
BRANCH  30  32
ATOM     32  O   UNL     1      52.652  38.000  21.280  1.00  0.00    -0.324 OA
ATOM     33  H   UNL     1      53.023  38.912  21.180  1.00  0.00     0.221 HD
ENDBRANCH  30  32
BRANCH  30  34
ATOM     34  O   UNL     1      52.103  36.438  22.782  1.00  0.00    -0.324 OA
ATOM     35  H   UNL     1      52.326  35.891  23.577  1.00  0.00     0.221 HD
ENDBRANCH  30  34
ENDBRANCH  25  30
ENDBRANCH   2  25
TORSDOF 11
ENDMDL
MODEL 7
REMARK VINA RESULT:    -7.780      4.266      7.822
REMARK INTER + INTRA:         -13.872
REMARK INTER:                 -11.806
REMARK INTRA:                  -2.066
REMARK UNBOUND:                -1.543
REMARK SMILES CC(C)C[C@H](C(=O)N[C@@H](Cc1ccccn1)C(=O)Nc1ccc(Cl)c(Cl)c1)P(=O)(O)O
REMARK SMILES IDX 8 1 6 2 7 3 9 5 17 6 19 7 18 8 20 10 27 11 21 12 25 13 22 14
REMARK SMILES IDX 23 15 26 16 24 17 10 18 11 19 12 20 16 21 13 22 15 23 14 24
REMARK SMILES IDX 5 25 4 26 2 27 1 28 3 29 28 30 29 31 31 32 30 34
REMARK H PARENT 8 4 19 9 31 33 30 35
ROOT
ATOM      1  N   UNL     1      49.773  32.502  17.858  1.00  0.00    -0.343 N 
ATOM      2  C   UNL     1      48.474  32.712  18.408  1.00  0.00     0.235 C 
ATOM      3  O   UNL     1      48.318  32.832  19.618  1.00  0.00    -0.274 OA
ATOM      4  H   UNL     1      49.917  32.425  16.841  1.00  0.00     0.164 HD
ENDROOT
BRANCH   1   5
ATOM      5  C   UNL     1      50.872  32.402  18.778  1.00  0.00     0.177 C 
BRANCH   5   6
ATOM      6  C   UNL     1      51.473  33.715  19.164  1.00  0.00     0.247 C 
ATOM      7  N   UNL     1      52.331  33.619  20.281  1.00  0.00    -0.324 N 
ATOM      8  O   UNL     1      51.276  34.762  18.631  1.00  0.00    -0.272 OA
ATOM      9  H   UNL     1      52.309  32.736  20.809  1.00  0.00     0.170 HD
BRANCH   7  10
ATOM     10  C   UNL     1      53.225  34.625  20.748  1.00  0.00     0.042 A 
ATOM     11  C   UNL     1      52.840  35.551  21.688  1.00  0.00     0.048 A 
ATOM     12  C   UNL     1      54.405  34.749  20.057  1.00  0.00     0.028 A 
ATOM     13  C   UNL     1      53.735  36.561  22.030  1.00  0.00     0.061 A 
ATOM     14  C   UNL     1      55.294  35.736  20.443  1.00  0.00     0.024 A 
ATOM     15  C   UNL     1      54.942  36.618  21.417  1.00  0.00     0.059 A 
ATOM     16  Cl  UNL     1      53.268  37.687  23.273  1.00  0.00    -0.083 Cl
ATOM     17  Cl  UNL     1      56.077  37.881  21.883  1.00  0.00    -0.083 Cl
ENDBRANCH   7  10
ENDBRANCH   5   6
BRANCH   5  18
ATOM     18  C   UNL     1      51.977  31.613  17.962  1.00  0.00     0.091 C 
BRANCH  18  19
ATOM     19  C   UNL     1      51.770  30.123  18.022  1.00  0.00     0.043 A 
ATOM     20  C   UNL     1      52.707  29.306  17.447  1.00  0.00     0.024 A 
ATOM     21  N   UNL     1      50.679  29.644  18.583  1.00  0.00    -0.261 NA
ATOM     22  C   UNL     1      52.501  27.908  17.452  1.00  0.00     0.003 A 
ATOM     23  C   UNL     1      50.455  28.340  18.610  1.00  0.00     0.111 A 
ATOM     24  C   UNL     1      51.348  27.444  18.054  1.00  0.00     0.020 A 
ENDBRANCH  18  19
ENDBRANCH   5  18
ENDBRANCH   1   5
BRANCH   2  25
ATOM     25  C   UNL     1      47.352  32.744  17.359  1.00  0.00     0.193 C 
BRANCH  25  26
ATOM     26  C   UNL     1      47.476  34.037  16.613  1.00  0.00     0.029 C 
BRANCH  26  27
ATOM     27  C   UNL     1      46.133  34.651  16.185  1.00  0.00    -0.016 C 
ATOM     28  C   UNL     1      45.887  34.351  14.698  1.00  0.00     0.007 C 
ATOM     29  C   UNL     1      44.941  34.173  17.026  1.00  0.00     0.007 C 
ENDBRANCH  26  27
ENDBRANCH  25  26
BRANCH  25  30
ATOM     30  P   UNL     1      47.299  31.302  16.301  1.00  0.00     0.337 P 
ATOM     31  O   UNL     1      45.904  31.050  15.881  1.00  0.00    -0.260 OA
BRANCH  30  32
ATOM     32  O   UNL     1      48.193  31.513  15.147  1.00  0.00    -0.324 OA
ATOM     33  H   UNL     1      48.309  30.660  14.659  1.00  0.00     0.221 HD
ENDBRANCH  30  32
BRANCH  30  34
ATOM     34  O   UNL     1      48.093  30.149  16.914  1.00  0.00    -0.324 OA
ATOM     35  H   UNL     1      48.244  30.328  17.877  1.00  0.00     0.221 HD
ENDBRANCH  30  34
ENDBRANCH  25  30
ENDBRANCH   2  25
TORSDOF 11
ENDMDL
MODEL 8
REMARK VINA RESULT:    -7.666      3.268      6.050
REMARK INTER + INTRA:         -13.690
REMARK INTER:                 -12.123
REMARK INTRA:                  -1.567
REMARK UNBOUND:                -1.543
REMARK SMILES CC(C)C[C@H](C(=O)N[C@@H](Cc1ccccn1)C(=O)Nc1ccc(Cl)c(Cl)c1)P(=O)(O)O
REMARK SMILES IDX 8 1 6 2 7 3 9 5 17 6 19 7 18 8 20 10 27 11 21 12 25 13 22 14
REMARK SMILES IDX 23 15 26 16 24 17 10 18 11 19 12 20 16 21 13 22 15 23 14 24
REMARK SMILES IDX 5 25 4 26 2 27 1 28 3 29 28 30 29 31 31 32 30 34
REMARK H PARENT 8 4 19 9 31 33 30 35
ROOT
ATOM      1  N   UNL     1      55.637  36.495  21.610  1.00  0.00    -0.343 N 
ATOM      2  C   UNL     1      54.619  35.747  20.947  1.00  0.00     0.235 C 
ATOM      3  O   UNL     1      54.839  35.214  19.865  1.00  0.00    -0.274 OA
ATOM      4  H   UNL     1      55.470  36.925  22.531  1.00  0.00     0.164 HD
ENDROOT
BRANCH   1   5
ATOM      5  C   UNL     1      56.902  36.626  20.943  1.00  0.00     0.177 C 
BRANCH   5   6
ATOM      6  C   UNL     1      58.048  35.995  21.666  1.00  0.00     0.247 C 
ATOM      7  N   UNL     1      58.996  35.415  20.796  1.00  0.00    -0.324 N 
ATOM      8  O   UNL     1      58.191  35.945  22.848  1.00  0.00    -0.272 OA
ATOM      9  H   UNL     1      58.722  35.320  19.808  1.00  0.00     0.170 HD
BRANCH   7  10
ATOM     10  C   UNL     1      60.293  34.948  21.151  1.00  0.00     0.042 A 
ATOM     11  C   UNL     1      60.518  33.638  21.500  1.00  0.00     0.048 A 
ATOM     12  C   UNL     1      61.252  35.914  21.330  1.00  0.00     0.028 A 
ATOM     13  C   UNL     1      61.792  33.272  21.924  1.00  0.00     0.061 A 
ATOM     14  C   UNL     1      62.522  35.520  21.714  1.00  0.00     0.024 A 
ATOM     15  C   UNL     1      62.764  34.213  22.002  1.00  0.00     0.059 A 
ATOM     16  Cl  UNL     1      62.086  31.596  22.296  1.00  0.00    -0.083 Cl
ATOM     17  Cl  UNL     1      64.381  33.730  22.508  1.00  0.00    -0.083 Cl
ENDBRANCH   7  10
ENDBRANCH   5   6
BRANCH   5  18
ATOM     18  C   UNL     1      57.168  38.187  20.937  1.00  0.00     0.091 C 
BRANCH  18  19
ATOM     19  C   UNL     1      57.993  38.617  19.753  1.00  0.00     0.043 A 
ATOM     20  C   UNL     1      58.649  39.819  19.811  1.00  0.00     0.024 A 
ATOM     21  N   UNL     1      58.030  37.854  18.680  1.00  0.00    -0.261 NA
ATOM     22  C   UNL     1      59.387  40.257  18.689  1.00  0.00     0.003 A 
ATOM     23  C   UNL     1      58.715  38.231  17.612  1.00  0.00     0.111 A 
ATOM     24  C   UNL     1      59.406  39.428  17.584  1.00  0.00     0.020 A 
ENDBRANCH  18  19
ENDBRANCH   5  18
ENDBRANCH   1   5
BRANCH   2  25
ATOM     25  C   UNL     1      53.282  35.711  21.701  1.00  0.00     0.193 C 
BRANCH  25  26
ATOM     26  C   UNL     1      53.095  37.054  22.339  1.00  0.00     0.029 C 
BRANCH  26  27
ATOM     27  C   UNL     1      52.788  37.002  23.845  1.00  0.00    -0.016 C 
ATOM     28  C   UNL     1      53.730  35.994  24.522  1.00  0.00     0.007 C 
ATOM     29  C   UNL     1      52.884  38.367  24.541  1.00  0.00     0.007 C 
ENDBRANCH  26  27
ENDBRANCH  25  26
BRANCH  25  30
ATOM     30  P   UNL     1      51.893  35.186  20.704  1.00  0.00     0.337 P 
ATOM     31  O   UNL     1      51.963  33.725  20.490  1.00  0.00    -0.260 OA
BRANCH  30  32
ATOM     32  O   UNL     1      50.638  35.587  21.370  1.00  0.00    -0.324 OA
ATOM     33  H   UNL     1      49.963  35.826  20.686  1.00  0.00     0.221 HD
ENDBRANCH  30  32
BRANCH  30  34
ATOM     34  O   UNL     1      51.727  36.093  19.485  1.00  0.00    -0.324 OA
ATOM     35  H   UNL     1      51.631  35.537  18.671  1.00  0.00     0.221 HD
ENDBRANCH  30  34
ENDBRANCH  25  30
ENDBRANCH   2  25
TORSDOF 11
ENDMDL
MODEL 9
REMARK VINA RESULT:    -7.554      6.596     10.281
REMARK INTER + INTRA:         -13.514
REMARK INTER:                 -11.972
REMARK INTRA:                  -1.542
REMARK UNBOUND:                -1.543
REMARK SMILES CC(C)C[C@H](C(=O)N[C@@H](Cc1ccccn1)C(=O)Nc1ccc(Cl)c(Cl)c1)P(=O)(O)O
REMARK SMILES IDX 8 1 6 2 7 3 9 5 17 6 19 7 18 8 20 10 27 11 21 12 25 13 22 14
REMARK SMILES IDX 23 15 26 16 24 17 10 18 11 19 12 20 16 21 13 22 15 23 14 24
REMARK SMILES IDX 5 25 4 26 2 27 1 28 3 29 28 30 29 31 31 32 30 34
REMARK H PARENT 8 4 19 9 31 33 30 35
ROOT
ATOM      1  N   UNL     1      50.813  32.389  17.775  1.00  0.00    -0.343 N 
ATOM      2  C   UNL     1      50.899  32.676  19.169  1.00  0.00     0.235 C 
ATOM      3  O   UNL     1      49.985  32.370  19.927  1.00  0.00    -0.274 OA
ATOM      4  H   UNL     1      51.586  32.619  17.133  1.00  0.00     0.164 HD
ENDROOT
BRANCH   1   5
ATOM      5  C   UNL     1      49.609  31.767  17.300  1.00  0.00     0.177 C 
BRANCH   5   6
ATOM      6  C   UNL     1      49.685  30.277  17.197  1.00  0.00     0.247 C 
ATOM      7  N   UNL     1      50.783  29.732  17.895  1.00  0.00    -0.324 N 
ATOM      8  O   UNL     1      48.933  29.576  16.593  1.00  0.00    -0.272 OA
ATOM      9  H   UNL     1      51.496  30.395  18.229  1.00  0.00     0.170 HD
BRANCH   7  10
ATOM     10  C   UNL     1      51.002  28.355  18.183  1.00  0.00     0.042 A 
ATOM     11  C   UNL     1      51.728  27.548  17.340  1.00  0.00     0.048 A 
ATOM     12  C   UNL     1      50.274  27.835  19.225  1.00  0.00     0.028 A 
ATOM     13  C   UNL     1      51.824  26.192  17.636  1.00  0.00     0.061 A 
ATOM     14  C   UNL     1      50.417  26.492  19.524  1.00  0.00     0.024 A 
ATOM     15  C   UNL     1      51.186  25.701  18.726  1.00  0.00     0.059 A 
ATOM     16  Cl  UNL     1      52.806  25.191  16.603  1.00  0.00    -0.083 Cl
ATOM     17  Cl  UNL     1      51.343  23.989  19.109  1.00  0.00    -0.083 Cl
ENDBRANCH   7  10
ENDBRANCH   5   6
BRANCH   5  18
ATOM     18  C   UNL     1      49.453  32.321  15.824  1.00  0.00     0.091 C 
BRANCH  18  19
ATOM     19  C   UNL     1      48.162  33.072  15.635  1.00  0.00     0.043 A 
ATOM     20  C   UNL     1      47.777  33.968  16.596  1.00  0.00     0.024 A 
ATOM     21  N   UNL     1      47.416  32.819  14.579  1.00  0.00    -0.261 NA
ATOM     22  C   UNL     1      46.544  34.644  16.456  1.00  0.00     0.003 A 
ATOM     23  C   UNL     1      46.257  33.436  14.413  1.00  0.00     0.111 A 
ATOM     24  C   UNL     1      45.792  34.357  15.334  1.00  0.00     0.020 A 
ENDBRANCH  18  19
ENDBRANCH   5  18
ENDBRANCH   1   5
BRANCH   2  25
ATOM     25  C   UNL     1      52.191  33.396  19.579  1.00  0.00     0.193 C 
BRANCH  25  26
ATOM     26  C   UNL     1      53.073  33.451  18.368  1.00  0.00     0.029 C 
BRANCH  26  27
ATOM     27  C   UNL     1      54.410  32.707  18.526  1.00  0.00    -0.016 C 
ATOM     28  C   UNL     1      54.283  31.298  17.926  1.00  0.00     0.007 C 
ATOM     29  C   UNL     1      55.602  33.444  17.900  1.00  0.00     0.007 C 
ENDBRANCH  26  27
ENDBRANCH  25  26
BRANCH  25  30
ATOM     30  P   UNL     1      51.929  34.988  20.352  1.00  0.00     0.337 P 
ATOM     31  O   UNL     1      53.159  35.401  21.060  1.00  0.00    -0.260 OA
BRANCH  30  32
ATOM     32  O   UNL     1      51.528  35.967  19.325  1.00  0.00    -0.324 OA
ATOM     33  H   UNL     1      52.252  36.632  19.202  1.00  0.00     0.221 HD
ENDBRANCH  30  32
BRANCH  30  34
ATOM     34  O   UNL     1      50.607  35.006  21.120  1.00  0.00    -0.324 OA
ATOM     35  H   UNL     1      50.646  35.699  21.827  1.00  0.00     0.221 HD
ENDBRANCH  30  34
ENDBRANCH  25  30
ENDBRANCH   2  25
TORSDOF 11
ENDMDL
MODEL 10
REMARK VINA RESULT:    -7.536      3.921      6.680
REMARK INTER + INTRA:         -13.484
REMARK INTER:                 -12.175
REMARK INTRA:                  -1.309
REMARK UNBOUND:                -1.543
REMARK SMILES CC(C)C[C@H](C(=O)N[C@@H](Cc1ccccn1)C(=O)Nc1ccc(Cl)c(Cl)c1)P(=O)(O)O
REMARK SMILES IDX 8 1 6 2 7 3 9 5 17 6 19 7 18 8 20 10 27 11 21 12 25 13 22 14
REMARK SMILES IDX 23 15 26 16 24 17 10 18 11 19 12 20 16 21 13 22 15 23 14 24
REMARK SMILES IDX 5 25 4 26 2 27 1 28 3 29 28 30 29 31 31 32 30 34
REMARK H PARENT 8 4 19 9 31 33 30 35
ROOT
ATOM      1  N   UNL     1      52.127  34.259  19.204  1.00  0.00    -0.343 N 
ATOM      2  C   UNL     1      51.302  33.100  19.114  1.00  0.00     0.235 C 
ATOM      3  O   UNL     1      51.369  32.218  19.961  1.00  0.00    -0.274 OA
ATOM      4  H   UNL     1      52.061  35.019  18.510  1.00  0.00     0.164 HD
ENDROOT
BRANCH   1   5
ATOM      5  C   UNL     1      53.055  34.328  20.298  1.00  0.00     0.177 C 
BRANCH   5   6
ATOM      6  C   UNL     1      52.880  35.522  21.181  1.00  0.00     0.247 C 
ATOM      7  N   UNL     1      53.364  35.314  22.490  1.00  0.00    -0.324 N 
ATOM      8  O   UNL     1      52.381  36.559  20.869  1.00  0.00    -0.272 OA
ATOM      9  H   UNL     1      53.602  34.346  22.749  1.00  0.00     0.170 HD
BRANCH   7  10
ATOM     10  C   UNL     1      53.555  36.312  23.488  1.00  0.00     0.042 A 
ATOM     11  C   UNL     1      54.528  36.191  24.451  1.00  0.00     0.048 A 
ATOM     12  C   UNL     1      52.585  37.281  23.563  1.00  0.00     0.028 A 
ATOM     13  C   UNL     1      54.598  37.159  25.449  1.00  0.00     0.061 A 
ATOM     14  C   UNL     1      52.699  38.254  24.539  1.00  0.00     0.024 A 
ATOM     15  C   UNL     1      53.699  38.173  25.459  1.00  0.00     0.059 A 
ATOM     16  Cl  UNL     1      55.878  37.038  26.623  1.00  0.00    -0.083 Cl
ATOM     17  Cl  UNL     1      53.819  39.408  26.709  1.00  0.00    -0.083 Cl
ENDBRANCH   7  10
ENDBRANCH   5   6
BRANCH   5  18
ATOM     18  C   UNL     1      54.464  34.482  19.592  1.00  0.00     0.091 C 
BRANCH  18  19
ATOM     19  C   UNL     1      54.701  33.411  18.561  1.00  0.00     0.043 A 
ATOM     20  C   UNL     1      55.006  33.788  17.280  1.00  0.00     0.024 A 
ATOM     21  N   UNL     1      54.569  32.146  18.902  1.00  0.00    -0.261 NA
ATOM     22  C   UNL     1      55.183  32.795  16.291  1.00  0.00     0.003 A 
ATOM     23  C   UNL     1      54.732  31.188  18.003  1.00  0.00     0.111 A 
ATOM     24  C   UNL     1      55.041  31.479  16.687  1.00  0.00     0.020 A 
ENDBRANCH  18  19
ENDBRANCH   5  18
ENDBRANCH   1   5
BRANCH   2  25
ATOM     25  C   UNL     1      50.387  33.082  17.881  1.00  0.00     0.193 C 
BRANCH  25  26
ATOM     26  C   UNL     1      50.858  31.970  16.993  1.00  0.00     0.029 C 
BRANCH  26  27
ATOM     27  C   UNL     1      50.606  32.208  15.494  1.00  0.00    -0.016 C 
ATOM     28  C   UNL     1      51.946  32.187  14.744  1.00  0.00     0.007 C 
ATOM     29  C   UNL     1      49.632  31.200  14.867  1.00  0.00     0.007 C 
ENDBRANCH  26  27
ENDBRANCH  25  26
BRANCH  25  30
ATOM     30  P   UNL     1      48.641  33.009  18.265  1.00  0.00     0.337 P 
ATOM     31  O   UNL     1      47.942  34.129  17.601  1.00  0.00    -0.260 OA
BRANCH  30  32
ATOM     32  O   UNL     1      48.106  31.699  17.845  1.00  0.00    -0.324 OA
ATOM     33  H   UNL     1      48.694  31.310  17.150  1.00  0.00     0.221 HD
ENDBRANCH  30  32
BRANCH  30  34
ATOM     34  O   UNL     1      48.424  32.801  19.763  1.00  0.00    -0.324 OA
ATOM     35  H   UNL     1      48.091  31.882  19.924  1.00  0.00     0.221 HD
ENDBRANCH  30  34
ENDBRANCH  25  30
ENDBRANCH   2  25
TORSDOF 11
ENDMDL
MODEL 11
REMARK VINA RESULT:    -7.471      7.084     10.833
REMARK INTER + INTRA:         -13.381
REMARK INTER:                 -11.737
REMARK INTRA:                  -1.644
REMARK UNBOUND:                -1.543
REMARK SMILES CC(C)C[C@H](C(=O)N[C@@H](Cc1ccccn1)C(=O)Nc1ccc(Cl)c(Cl)c1)P(=O)(O)O
REMARK SMILES IDX 8 1 6 2 7 3 9 5 17 6 19 7 18 8 20 10 27 11 21 12 25 13 22 14
REMARK SMILES IDX 23 15 26 16 24 17 10 18 11 19 12 20 16 21 13 22 15 23 14 24
REMARK SMILES IDX 5 25 4 26 2 27 1 28 3 29 28 30 29 31 31 32 30 34
REMARK H PARENT 8 4 19 9 31 33 30 35
ROOT
ATOM      1  N   UNL     1      49.470  33.315  17.914  1.00  0.00    -0.343 N 
ATOM      2  C   UNL     1      49.864  33.085  19.265  1.00  0.00     0.235 C 
ATOM      3  O   UNL     1      49.043  32.732  20.104  1.00  0.00    -0.274 OA
ATOM      4  H   UNL     1      50.157  33.588  17.195  1.00  0.00     0.164 HD
ENDROOT
BRANCH   1   5
ATOM      5  C   UNL     1      48.080  33.152  17.593  1.00  0.00     0.177 C 
BRANCH   5   6
ATOM      6  C   UNL     1      47.743  31.840  16.959  1.00  0.00     0.247 C 
ATOM      7  N   UNL     1      48.817  31.292  16.225  1.00  0.00    -0.324 N 
ATOM      8  O   UNL     1      46.695  31.278  17.022  1.00  0.00    -0.272 OA
ATOM      9  H   UNL     1      49.622  31.910  16.049  1.00  0.00     0.170 HD
BRANCH   7  10
ATOM     10  C   UNL     1      48.897  29.969  15.705  1.00  0.00     0.042 A 
ATOM     11  C   UNL     1      49.287  28.909  16.488  1.00  0.00     0.048 A 
ATOM     12  C   UNL     1      48.772  29.849  14.343  1.00  0.00     0.028 A 
ATOM     13  C   UNL     1      49.430  27.660  15.891  1.00  0.00     0.061 A 
ATOM     14  C   UNL     1      48.879  28.591  13.779  1.00  0.00     0.024 A 
ATOM     15  C   UNL     1      49.206  27.527  14.561  1.00  0.00     0.059 A 
ATOM     16  Cl  UNL     1      49.855  26.308  16.904  1.00  0.00    -0.083 Cl
ATOM     17  Cl  UNL     1      49.358  25.934  13.825  1.00  0.00    -0.083 Cl
ENDBRANCH   7  10
ENDBRANCH   5   6
BRANCH   5  18
ATOM     18  C   UNL     1      47.809  34.270  16.504  1.00  0.00     0.091 C 
BRANCH  18  19
ATOM     19  C   UNL     1      46.378  34.266  16.033  1.00  0.00     0.043 A 
ATOM     20  C   UNL     1      46.116  33.918  14.734  1.00  0.00     0.024 A 
ATOM     21  N   UNL     1      45.424  34.638  16.861  1.00  0.00    -0.261 NA
ATOM     22  C   UNL     1      44.784  33.957  14.264  1.00  0.00     0.003 A 
ATOM     23  C   UNL     1      44.165  34.682  16.456  1.00  0.00     0.111 A 
ATOM     24  C   UNL     1      43.810  34.346  15.163  1.00  0.00     0.020 A 
ENDBRANCH  18  19
ENDBRANCH   5  18
ENDBRANCH   1   5
BRANCH   2  25
ATOM     25  C   UNL     1      51.354  33.343  19.531  1.00  0.00     0.193 C 
BRANCH  25  26
ATOM     26  C   UNL     1      52.065  33.247  18.216  1.00  0.00     0.029 C 
BRANCH  26  27
ATOM     27  C   UNL     1      52.888  31.961  18.033  1.00  0.00    -0.016 C 
ATOM     28  C   UNL     1      52.394  31.214  16.784  1.00  0.00     0.007 C 
ATOM     29  C   UNL     1      54.401  32.205  17.940  1.00  0.00     0.007 C 
ENDBRANCH  26  27
ENDBRANCH  25  26
BRANCH  25  30
ATOM     30  P   UNL     1      51.687  34.857  20.423  1.00  0.00     0.337 P 
ATOM     31  O   UNL     1      52.065  35.920  19.468  1.00  0.00    -0.260 OA
BRANCH  30  32
ATOM     32  O   UNL     1      50.498  35.225  21.216  1.00  0.00    -0.324 OA
ATOM     33  H   UNL     1      50.554  34.804  22.110  1.00  0.00     0.221 HD
ENDBRANCH  30  32
BRANCH  30  34
ATOM     34  O   UNL     1      52.603  34.593  21.618  1.00  0.00    -0.324 OA
ATOM     35  H   UNL     1      52.159  34.899  22.448  1.00  0.00     0.221 HD
ENDBRANCH  30  34
ENDBRANCH  25  30
ENDBRANCH   2  25
TORSDOF 11
ENDMDL
MODEL 12
REMARK VINA RESULT:    -7.467      3.582      6.249
REMARK INTER + INTRA:         -13.375
REMARK INTER:                 -11.812
REMARK INTRA:                  -1.564
REMARK UNBOUND:                -1.543
REMARK SMILES CC(C)C[C@H](C(=O)N[C@@H](Cc1ccccn1)C(=O)Nc1ccc(Cl)c(Cl)c1)P(=O)(O)O
REMARK SMILES IDX 8 1 6 2 7 3 9 5 17 6 19 7 18 8 20 10 27 11 21 12 25 13 22 14
REMARK SMILES IDX 23 15 26 16 24 17 10 18 11 19 12 20 16 21 13 22 15 23 14 24
REMARK SMILES IDX 5 25 4 26 2 27 1 28 3 29 28 30 29 31 31 32 30 34
REMARK H PARENT 8 4 19 9 31 33 30 35
ROOT
ATOM      1  N   UNL     1      56.060  37.479  21.842  1.00  0.00    -0.343 N 
ATOM      2  C   UNL     1      55.610  36.962  23.093  1.00  0.00     0.235 C 
ATOM      3  O   UNL     1      56.411  36.535  23.917  1.00  0.00    -0.274 OA
ATOM      4  H   UNL     1      55.397  37.863  21.153  1.00  0.00     0.164 HD
ENDROOT
BRANCH   1   5
ATOM      5  C   UNL     1      57.472  37.445  21.581  1.00  0.00     0.177 C 
BRANCH   5   6
ATOM      6  C   UNL     1      58.013  38.690  20.956  1.00  0.00     0.247 C 
ATOM      7  N   UNL     1      59.415  38.801  21.075  1.00  0.00    -0.324 N 
ATOM      8  O   UNL     1      57.376  39.539  20.413  1.00  0.00    -0.272 OA
ATOM      9  H   UNL     1      59.880  38.142  21.715  1.00  0.00     0.170 HD
BRANCH   7  10
ATOM     10  C   UNL     1      60.250  39.734  20.396  1.00  0.00     0.042 A 
ATOM     11  C   UNL     1      60.774  39.462  19.155  1.00  0.00     0.048 A 
ATOM     12  C   UNL     1      60.669  40.813  21.133  1.00  0.00     0.028 A 
ATOM     13  C   UNL     1      61.655  40.380  18.591  1.00  0.00     0.061 A 
ATOM     14  C   UNL     1      61.513  41.732  20.536  1.00  0.00     0.024 A 
ATOM     15  C   UNL     1      61.988  41.497  19.282  1.00  0.00     0.059 A 
ATOM     16  Cl  UNL     1      62.260  40.062  16.989  1.00  0.00    -0.083 Cl
ATOM     17  Cl  UNL     1      63.077  42.667  18.543  1.00  0.00    -0.083 Cl
ENDBRANCH   7  10
ENDBRANCH   5   6
BRANCH   5  18
ATOM     18  C   UNL     1      57.631  36.288  20.512  1.00  0.00     0.091 C 
BRANCH  18  19
ATOM     19  C   UNL     1      58.691  35.293  20.907  1.00  0.00     0.043 A 
ATOM     20  C   UNL     1      59.493  35.582  21.979  1.00  0.00     0.024 A 
ATOM     21  N   UNL     1      58.850  34.200  20.192  1.00  0.00    -0.261 NA
ATOM     22  C   UNL     1      60.524  34.681  22.332  1.00  0.00     0.003 A 
ATOM     23  C   UNL     1      59.802  33.332  20.495  1.00  0.00     0.111 A 
ATOM     24  C   UNL     1      60.657  33.543  21.562  1.00  0.00     0.020 A 
ENDBRANCH  18  19
ENDBRANCH   5  18
ENDBRANCH   1   5
BRANCH   2  25
ATOM     25  C   UNL     1      54.084  36.980  23.261  1.00  0.00     0.193 C 
BRANCH  25  26
ATOM     26  C   UNL     1      53.732  38.235  24.001  1.00  0.00     0.029 C 
BRANCH  26  27
ATOM     27  C   UNL     1      52.562  38.081  24.986  1.00  0.00    -0.016 C 
ATOM     28  C   UNL     1      52.666  36.720  25.691  1.00  0.00     0.007 C 
ATOM     29  C   UNL     1      52.478  39.210  26.024  1.00  0.00     0.007 C 
ENDBRANCH  26  27
ENDBRANCH  25  26
BRANCH  25  30
ATOM     30  P   UNL     1      53.176  36.763  21.735  1.00  0.00     0.337 P 
ATOM     31  O   UNL     1      53.940  35.881  20.828  1.00  0.00    -0.260 OA
BRANCH  30  32
ATOM     32  O   UNL     1      51.839  36.218  22.039  1.00  0.00    -0.324 OA
ATOM     33  H   UNL     1      51.221  36.426  21.294  1.00  0.00     0.221 HD
ENDBRANCH  30  32
BRANCH  30  34
ATOM     34  O   UNL     1      52.686  38.108  21.200  1.00  0.00    -0.324 OA
ATOM     35  H   UNL     1      52.068  38.518  21.855  1.00  0.00     0.221 HD
ENDBRANCH  30  34
ENDBRANCH  25  30
ENDBRANCH   2  25
TORSDOF 11
ENDMDL
MODEL 13
REMARK VINA RESULT:    -7.432      3.938      7.149
REMARK INTER + INTRA:         -13.320
REMARK INTER:                 -11.146
REMARK INTRA:                  -2.174
REMARK UNBOUND:                -1.543
REMARK SMILES CC(C)C[C@H](C(=O)N[C@@H](Cc1ccccn1)C(=O)Nc1ccc(Cl)c(Cl)c1)P(=O)(O)O
REMARK SMILES IDX 8 1 6 2 7 3 9 5 17 6 19 7 18 8 20 10 27 11 21 12 25 13 22 14
REMARK SMILES IDX 23 15 26 16 24 17 10 18 11 19 12 20 16 21 13 22 15 23 14 24
REMARK SMILES IDX 5 25 4 26 2 27 1 28 3 29 28 30 29 31 31 32 30 34
REMARK H PARENT 8 4 19 9 31 33 30 35
ROOT
ATOM      1  N   UNL     1      49.792  32.864  18.268  1.00  0.00    -0.343 N 
ATOM      2  C   UNL     1      48.394  32.890  18.550  1.00  0.00     0.235 C 
ATOM      3  O   UNL     1      47.991  32.947  19.706  1.00  0.00    -0.274 OA
ATOM      4  H   UNL     1      50.142  32.841  17.299  1.00  0.00     0.164 HD
ENDROOT
BRANCH   1   5
ATOM      5  C   UNL     1      50.693  32.871  19.386  1.00  0.00     0.177 C 
BRANCH   5   6
ATOM      6  C   UNL     1      51.407  34.169  19.595  1.00  0.00     0.247 C 
ATOM      7  N   UNL     1      52.475  34.068  20.512  1.00  0.00    -0.324 N 
ATOM      8  O   UNL     1      51.138  35.209  19.079  1.00  0.00    -0.272 OA
ATOM      9  H   UNL     1      52.532  33.201  21.064  1.00  0.00     0.170 HD
BRANCH   7  10
ATOM     10  C   UNL     1      53.479  35.049  20.749  1.00  0.00     0.042 A 
ATOM     11  C   UNL     1      54.674  35.035  20.071  1.00  0.00     0.048 A 
ATOM     12  C   UNL     1      53.276  35.868  21.832  1.00  0.00     0.028 A 
ATOM     13  C   UNL     1      55.646  35.969  20.418  1.00  0.00     0.061 A 
ATOM     14  C   UNL     1      54.240  36.814  22.133  1.00  0.00     0.024 A 
ATOM     15  C   UNL     1      55.400  36.844  21.423  1.00  0.00     0.059 A 
ATOM     16  Cl  UNL     1      57.129  35.991  19.505  1.00  0.00    -0.083 Cl
ATOM     17  Cl  UNL     1      56.625  38.042  21.831  1.00  0.00    -0.083 Cl
ENDBRANCH   7  10
ENDBRANCH   5   6
BRANCH   5  18
ATOM     18  C   UNL     1      51.793  31.801  18.994  1.00  0.00     0.091 C 
BRANCH  18  19
ATOM     19  C   UNL     1      52.175  31.888  17.540  1.00  0.00     0.043 A 
ATOM     20  C   UNL     1      53.034  32.879  17.145  1.00  0.00     0.024 A 
ATOM     21  N   UNL     1      51.644  31.043  16.681  1.00  0.00    -0.261 NA
ATOM     22  C   UNL     1      53.363  33.003  15.776  1.00  0.00     0.003 A 
ATOM     23  C   UNL     1      51.931  31.127  15.392  1.00  0.00     0.111 A 
ATOM     24  C   UNL     1      52.790  32.096  14.906  1.00  0.00     0.020 A 
ENDBRANCH  18  19
ENDBRANCH   5  18
ENDBRANCH   1   5
BRANCH   2  25
ATOM     25  C   UNL     1      47.506  32.816  17.300  1.00  0.00     0.193 C 
BRANCH  25  26
ATOM     26  C   UNL     1      47.483  34.184  16.689  1.00  0.00     0.029 C 
BRANCH  26  27
ATOM     27  C   UNL     1      46.096  34.635  16.202  1.00  0.00    -0.016 C 
ATOM     28  C   UNL     1      45.962  34.337  14.700  1.00  0.00     0.007 C 
ATOM     29  C   UNL     1      44.933  33.996  16.975  1.00  0.00     0.007 C 
ENDBRANCH  26  27
ENDBRANCH  25  26
BRANCH  25  30
ATOM     30  P   UNL     1      47.961  31.520  16.154  1.00  0.00     0.337 P 
ATOM     31  O   UNL     1      48.809  32.084  15.083  1.00  0.00    -0.260 OA
BRANCH  30  32
ATOM     32  O   UNL     1      48.646  30.440  16.889  1.00  0.00    -0.324 OA
ATOM     33  H   UNL     1      47.995  29.973  17.471  1.00  0.00     0.221 HD
ENDBRANCH  30  32
BRANCH  30  34
ATOM     34  O   UNL     1      46.738  30.695  15.755  1.00  0.00    -0.324 OA
ATOM     35  H   UNL     1      46.428  30.977  14.857  1.00  0.00     0.221 HD
ENDBRANCH  30  34
ENDBRANCH  25  30
ENDBRANCH   2  25
TORSDOF 11
ENDMDL
MODEL 14
REMARK VINA RESULT:    -7.392      4.808      7.842
REMARK INTER + INTRA:         -13.257
REMARK INTER:                 -11.515
REMARK INTRA:                  -1.743
REMARK UNBOUND:                -1.543
REMARK SMILES CC(C)C[C@H](C(=O)N[C@@H](Cc1ccccn1)C(=O)Nc1ccc(Cl)c(Cl)c1)P(=O)(O)O
REMARK SMILES IDX 8 1 6 2 7 3 9 5 17 6 19 7 18 8 20 10 27 11 21 12 25 13 22 14
REMARK SMILES IDX 23 15 26 16 24 17 10 18 11 19 12 20 16 21 13 22 15 23 14 24
REMARK SMILES IDX 5 25 4 26 2 27 1 28 3 29 28 30 29 31 31 32 30 34
REMARK H PARENT 8 4 19 9 31 33 30 35
ROOT
ATOM      1  N   UNL     1      49.551  33.534  17.555  1.00  0.00    -0.343 N 
ATOM      2  C   UNL     1      48.137  33.392  17.436  1.00  0.00     0.235 C 
ATOM      3  O   UNL     1      47.450  33.129  18.416  1.00  0.00    -0.274 OA
ATOM      4  H   UNL     1      50.135  33.780  16.742  1.00  0.00     0.164 HD
ENDROOT
BRANCH   1   5
ATOM      5  C   UNL     1      50.130  33.322  18.852  1.00  0.00     0.177 C 
BRANCH   5   6
ATOM      6  C   UNL     1      50.960  34.462  19.351  1.00  0.00     0.247 C 
ATOM      7  N   UNL     1      51.939  34.061  20.285  1.00  0.00    -0.324 N 
ATOM      8  O   UNL     1      50.843  35.605  19.037  1.00  0.00    -0.272 OA
ATOM      9  H   UNL     1      51.863  33.104  20.656  1.00  0.00     0.170 HD
BRANCH   7  10
ATOM     10  C   UNL     1      53.022  34.852  20.764  1.00  0.00     0.042 A 
ATOM     11  C   UNL     1      52.857  35.760  21.782  1.00  0.00     0.048 A 
ATOM     12  C   UNL     1      54.173  34.811  20.017  1.00  0.00     0.028 A 
ATOM     13  C   UNL     1      53.936  36.564  22.137  1.00  0.00     0.061 A 
ATOM     14  C   UNL     1      55.245  35.590  20.414  1.00  0.00     0.024 A 
ATOM     15  C   UNL     1      55.105  36.448  21.461  1.00  0.00     0.059 A 
ATOM     16  Cl  UNL     1      53.739  37.661  23.476  1.00  0.00    -0.083 Cl
ATOM     17  Cl  UNL     1      56.473  37.447  21.943  1.00  0.00    -0.083 Cl
ENDBRANCH   7  10
ENDBRANCH   5   6
BRANCH   5  18
ATOM     18  C   UNL     1      51.114  32.100  18.633  1.00  0.00     0.091 C 
BRANCH  18  19
ATOM     19  C   UNL     1      51.690  32.079  17.241  1.00  0.00     0.043 A 
ATOM     20  C   UNL     1      52.778  32.865  16.970  1.00  0.00     0.024 A 
ATOM     21  N   UNL     1      51.112  31.345  16.314  1.00  0.00    -0.261 NA
ATOM     22  C   UNL     1      53.300  32.893  15.657  1.00  0.00     0.003 A 
ATOM     23  C   UNL     1      51.575  31.343  15.074  1.00  0.00     0.111 A 
ATOM     24  C   UNL     1      52.670  32.106  14.713  1.00  0.00     0.020 A 
ENDBRANCH  18  19
ENDBRANCH   5  18
ENDBRANCH   1   5
BRANCH   2  25
ATOM     25  C   UNL     1      47.612  33.574  16.004  1.00  0.00     0.193 C 
BRANCH  25  26
ATOM     26  C   UNL     1      47.829  32.279  15.282  1.00  0.00     0.029 C 
BRANCH  26  27
ATOM     27  C   UNL     1      47.473  32.322  13.786  1.00  0.00    -0.016 C 
ATOM     28  C   UNL     1      48.747  32.106  12.954  1.00  0.00     0.007 C 
ATOM     29  C   UNL     1      46.397  31.304  13.381  1.00  0.00     0.007 C 
ENDBRANCH  26  27
ENDBRANCH  25  26
BRANCH  25  30
ATOM     30  P   UNL     1      45.931  34.179  15.912  1.00  0.00     0.337 P 
ATOM     31  O   UNL     1      44.996  33.099  16.293  1.00  0.00    -0.260 OA
BRANCH  30  32
ATOM     32  O   UNL     1      45.792  35.362  16.782  1.00  0.00    -0.324 OA
ATOM     33  H   UNL     1      44.851  35.444  17.080  1.00  0.00     0.221 HD
ENDBRANCH  30  32
BRANCH  30  34
ATOM     34  O   UNL     1      45.692  34.917  14.595  1.00  0.00    -0.324 OA
ATOM     35  H   UNL     1      46.516  35.398  14.332  1.00  0.00     0.221 HD
ENDBRANCH  30  34
ENDBRANCH  25  30
ENDBRANCH   2  25
TORSDOF 11
ENDMDL
MODEL 15
REMARK VINA RESULT:    -7.341      5.095      8.628
REMARK INTER + INTRA:         -13.175
REMARK INTER:                 -11.132
REMARK INTRA:                  -2.044
REMARK UNBOUND:                -1.543
REMARK SMILES CC(C)C[C@H](C(=O)N[C@@H](Cc1ccccn1)C(=O)Nc1ccc(Cl)c(Cl)c1)P(=O)(O)O
REMARK SMILES IDX 8 1 6 2 7 3 9 5 17 6 19 7 18 8 20 10 27 11 21 12 25 13 22 14
REMARK SMILES IDX 23 15 26 16 24 17 10 18 11 19 12 20 16 21 13 22 15 23 14 24
REMARK SMILES IDX 5 25 4 26 2 27 1 28 3 29 28 30 29 31 31 32 30 34
REMARK H PARENT 8 4 19 9 31 33 30 35
ROOT
ATOM      1  N   UNL     1      49.142  33.038  16.897  1.00  0.00    -0.343 N 
ATOM      2  C   UNL     1      47.731  33.245  16.925  1.00  0.00     0.235 C 
ATOM      3  O   UNL     1      47.109  33.172  17.978  1.00  0.00    -0.274 OA
ATOM      4  H   UNL     1      49.677  33.122  16.021  1.00  0.00     0.164 HD
ENDROOT
BRANCH   1   5
ATOM      5  C   UNL     1      49.787  32.709  18.137  1.00  0.00     0.177 C 
BRANCH   5   6
ATOM      6  C   UNL     1      50.503  33.853  18.782  1.00  0.00     0.247 C 
ATOM      7  N   UNL     1      51.544  33.436  19.639  1.00  0.00    -0.324 N 
ATOM      8  O   UNL     1      50.256  35.009  18.634  1.00  0.00    -0.272 OA
ATOM      9  H   UNL     1      51.581  32.434  19.872  1.00  0.00     0.170 HD
BRANCH   7  10
ATOM     10  C   UNL     1      52.549  34.267  20.212  1.00  0.00     0.042 A 
ATOM     11  C   UNL     1      52.265  35.142  21.233  1.00  0.00     0.048 A 
ATOM     12  C   UNL     1      53.752  34.299  19.551  1.00  0.00     0.028 A 
ATOM     13  C   UNL     1      53.274  35.988  21.682  1.00  0.00     0.061 A 
ATOM     14  C   UNL     1      54.752  35.119  20.041  1.00  0.00     0.024 A 
ATOM     15  C   UNL     1      54.493  35.944  21.092  1.00  0.00     0.059 A 
ATOM     16  Cl  UNL     1      52.927  37.043  23.023  1.00  0.00    -0.083 Cl
ATOM     17  Cl  UNL     1      55.771  36.997  21.693  1.00  0.00    -0.083 Cl
ENDBRANCH   7  10
ENDBRANCH   5   6
BRANCH   5  18
ATOM     18  C   UNL     1      50.891  31.652  17.722  1.00  0.00     0.091 C 
BRANCH  18  19
ATOM     19  C   UNL     1      50.326  30.261  17.601  1.00  0.00     0.043 A 
ATOM     20  C   UNL     1      50.768  29.296  18.467  1.00  0.00     0.024 A 
ATOM     21  N   UNL     1      49.460  29.996  16.645  1.00  0.00    -0.261 NA
ATOM     22  C   UNL     1      50.283  27.975  18.335  1.00  0.00     0.003 A 
ATOM     23  C   UNL     1      48.982  28.771  16.494  1.00  0.00     0.111 A 
ATOM     24  C   UNL     1      49.373  27.737  17.324  1.00  0.00     0.020 A 
ENDBRANCH  18  19
ENDBRANCH   5  18
ENDBRANCH   1   5
BRANCH   2  25
ATOM     25  C   UNL     1      47.116  33.529  15.547  1.00  0.00     0.193 C 
BRANCH  25  26
ATOM     26  C   UNL     1      47.189  32.259  14.756  1.00  0.00     0.029 C 
BRANCH  26  27
ATOM     27  C   UNL     1      47.847  32.410  13.374  1.00  0.00    -0.016 C 
ATOM     28  C   UNL     1      49.308  31.939  13.453  1.00  0.00     0.007 C 
ATOM     29  C   UNL     1      47.109  31.662  12.255  1.00  0.00     0.007 C 
ENDBRANCH  26  27
ENDBRANCH  25  26
BRANCH  25  30
ATOM     30  P   UNL     1      45.480  34.248  15.609  1.00  0.00     0.337 P 
ATOM     31  O   UNL     1      45.071  34.664  14.251  1.00  0.00    -0.260 OA
BRANCH  30  32
ATOM     32  O   UNL     1      44.541  33.271  16.193  1.00  0.00    -0.324 OA
ATOM     33  H   UNL     1      43.758  33.168  15.596  1.00  0.00     0.221 HD
ENDBRANCH  30  32
BRANCH  30  34
ATOM     34  O   UNL     1      45.378  35.268  16.743  1.00  0.00    -0.324 OA
ATOM     35  H   UNL     1      45.702  36.148  16.425  1.00  0.00     0.221 HD
ENDBRANCH  30  34
ENDBRANCH  25  30
ENDBRANCH   2  25
TORSDOF 11
ENDMDL
MODEL 16
REMARK VINA RESULT:    -7.298      3.291      6.088
REMARK INTER + INTRA:         -13.107
REMARK INTER:                 -11.799
REMARK INTRA:                  -1.308
REMARK UNBOUND:                -1.543
REMARK SMILES CC(C)C[C@H](C(=O)N[C@@H](Cc1ccccn1)C(=O)Nc1ccc(Cl)c(Cl)c1)P(=O)(O)O
REMARK SMILES IDX 8 1 6 2 7 3 9 5 17 6 19 7 18 8 20 10 27 11 21 12 25 13 22 14
REMARK SMILES IDX 23 15 26 16 24 17 10 18 11 19 12 20 16 21 13 22 15 23 14 24
REMARK SMILES IDX 5 25 4 26 2 27 1 28 3 29 28 30 29 31 31 32 30 34
REMARK H PARENT 8 4 19 9 31 33 30 35
ROOT
ATOM      1  N   UNL     1      55.985  36.385  21.720  1.00  0.00    -0.343 N 
ATOM      2  C   UNL     1      54.980  37.310  22.132  1.00  0.00     0.235 C 
ATOM      3  O   UNL     1      55.168  38.518  22.044  1.00  0.00    -0.274 OA
ATOM      4  H   UNL     1      55.828  35.368  21.767  1.00  0.00     0.164 HD
ENDROOT
BRANCH   1   5
ATOM      5  C   UNL     1      57.225  36.927  21.238  1.00  0.00     0.177 C 
BRANCH   5   6
ATOM      6  C   UNL     1      57.330  36.994  19.748  1.00  0.00     0.247 C 
ATOM      7  N   UNL     1      58.296  37.923  19.306  1.00  0.00    -0.324 N 
ATOM      8  O   UNL     1      56.684  36.365  18.969  1.00  0.00    -0.272 OA
ATOM      9  H   UNL     1      58.677  38.568  20.013  1.00  0.00     0.170 HD
BRANCH   7  10
ATOM     10  C   UNL     1      58.795  38.056  17.979  1.00  0.00     0.042 A 
ATOM     11  C   UNL     1      59.116  36.959  17.217  1.00  0.00     0.048 A 
ATOM     12  C   UNL     1      59.137  39.328  17.590  1.00  0.00     0.028 A 
ATOM     13  C   UNL     1      59.684  37.165  15.963  1.00  0.00     0.061 A 
ATOM     14  C   UNL     1      59.663  39.510  16.324  1.00  0.00     0.024 A 
ATOM     15  C   UNL     1      59.926  38.429  15.540  1.00  0.00     0.059 A 
ATOM     16  Cl  UNL     1      60.021  35.772  14.974  1.00  0.00    -0.083 Cl
ATOM     17  Cl  UNL     1      60.615  38.677  13.938  1.00  0.00    -0.083 Cl
ENDBRANCH   7  10
ENDBRANCH   5   6
BRANCH   5  18
ATOM     18  C   UNL     1      58.311  35.882  21.727  1.00  0.00     0.091 C 
BRANCH  18  19
ATOM     19  C   UNL     1      59.714  36.399  21.549  1.00  0.00     0.043 A 
ATOM     20  C   UNL     1      60.143  37.423  22.352  1.00  0.00     0.024 A 
ATOM     21  N   UNL     1      60.476  35.888  20.605  1.00  0.00    -0.261 NA
ATOM     22  C   UNL     1      61.440  37.951  22.163  1.00  0.00     0.003 A 
ATOM     23  C   UNL     1      61.698  36.354  20.403  1.00  0.00     0.111 A 
ATOM     24  C   UNL     1      62.211  37.386  21.167  1.00  0.00     0.020 A 
ENDBRANCH  18  19
ENDBRANCH   5  18
ENDBRANCH   1   5
BRANCH   2  25
ATOM     25  C   UNL     1      53.714  36.644  22.691  1.00  0.00     0.193 C 
BRANCH  25  26
ATOM     26  C   UNL     1      52.903  37.716  23.354  1.00  0.00     0.029 C 
BRANCH  26  27
ATOM     27  C   UNL     1      52.574  37.439  24.830  1.00  0.00    -0.016 C 
ATOM     28  C   UNL     1      53.606  36.456  25.405  1.00  0.00     0.007 C 
ATOM     29  C   UNL     1      52.511  38.706  25.695  1.00  0.00     0.007 C 
ENDBRANCH  26  27
ENDBRANCH  25  26
BRANCH  25  30
ATOM     30  P   UNL     1      52.799  35.685  21.490  1.00  0.00     0.337 P 
ATOM     31  O   UNL     1      53.497  35.730  20.188  1.00  0.00    -0.260 OA
BRANCH  30  32
ATOM     32  O   UNL     1      52.645  34.304  21.987  1.00  0.00    -0.324 OA
ATOM     33  H   UNL     1      51.988  33.823  21.424  1.00  0.00     0.221 HD
ENDBRANCH  30  32
BRANCH  30  34
ATOM     34  O   UNL     1      51.313  36.040  21.531  1.00  0.00    -0.324 OA
ATOM     35  H   UNL     1      51.204  37.018  21.421  1.00  0.00     0.221 HD
ENDBRANCH  30  34
ENDBRANCH  25  30
ENDBRANCH   2  25
TORSDOF 11
ENDMDL
MODEL 17
REMARK VINA RESULT:    -7.212      4.504      8.666
REMARK INTER + INTRA:         -12.971
REMARK INTER:                 -11.225
REMARK INTRA:                  -1.747
REMARK UNBOUND:                -1.543
REMARK SMILES CC(C)C[C@H](C(=O)N[C@@H](Cc1ccccn1)C(=O)Nc1ccc(Cl)c(Cl)c1)P(=O)(O)O
REMARK SMILES IDX 8 1 6 2 7 3 9 5 17 6 19 7 18 8 20 10 27 11 21 12 25 13 22 14
REMARK SMILES IDX 23 15 26 16 24 17 10 18 11 19 12 20 16 21 13 22 15 23 14 24
REMARK SMILES IDX 5 25 4 26 2 27 1 28 3 29 28 30 29 31 31 32 30 34
REMARK H PARENT 8 4 19 9 31 33 30 35
ROOT
ATOM      1  N   UNL     1      53.815  34.935  20.540  1.00  0.00    -0.343 N 
ATOM      2  C   UNL     1      53.248  36.141  21.048  1.00  0.00     0.235 C 
ATOM      3  O   UNL     1      52.352  36.715  20.441  1.00  0.00    -0.274 OA
ATOM      4  H   UNL     1      54.551  34.431  21.056  1.00  0.00     0.164 HD
ENDROOT
BRANCH   1   5
ATOM      5  C   UNL     1      53.320  34.449  19.283  1.00  0.00     0.177 C 
BRANCH   5   6
ATOM      6  C   UNL     1      51.978  33.794  19.360  1.00  0.00     0.247 C 
ATOM      7  N   UNL     1      51.229  33.932  18.171  1.00  0.00    -0.324 N 
ATOM      8  O   UNL     1      51.533  33.214  20.301  1.00  0.00    -0.272 OA
ATOM      9  H   UNL     1      51.585  34.601  17.474  1.00  0.00     0.170 HD
BRANCH   7  10
ATOM     10  C   UNL     1      50.030  33.238  17.843  1.00  0.00     0.042 A 
ATOM     11  C   UNL     1      50.050  31.942  17.387  1.00  0.00     0.048 A 
ATOM     12  C   UNL     1      48.887  33.997  17.804  1.00  0.00     0.028 A 
ATOM     13  C   UNL     1      48.848  31.356  16.998  1.00  0.00     0.061 A 
ATOM     14  C   UNL     1      47.699  33.382  17.452  1.00  0.00     0.024 A 
ATOM     15  C   UNL     1      47.704  32.080  17.058  1.00  0.00     0.059 A 
ATOM     16  Cl  UNL     1      48.871  29.691  16.489  1.00  0.00    -0.083 Cl
ATOM     17  Cl  UNL     1      46.186  31.317  16.595  1.00  0.00    -0.083 Cl
ENDBRANCH   7  10
ENDBRANCH   5   6
BRANCH   5  18
ATOM     18  C   UNL     1      54.358  33.324  18.876  1.00  0.00     0.091 C 
BRANCH  18  19
ATOM     19  C   UNL     1      55.573  33.894  18.192  1.00  0.00     0.043 A 
ATOM     20  C   UNL     1      55.645  33.834  16.826  1.00  0.00     0.024 A 
ATOM     21  N   UNL     1      56.548  34.394  18.921  1.00  0.00    -0.261 NA
ATOM     22  C   UNL     1      56.801  34.321  16.174  1.00  0.00     0.003 A 
ATOM     23  C   UNL     1      57.644  34.863  18.344  1.00  0.00     0.111 A 
ATOM     24  C   UNL     1      57.801  34.842  16.971  1.00  0.00     0.020 A 
ENDBRANCH  18  19
ENDBRANCH   5  18
ENDBRANCH   1   5
BRANCH   2  25
ATOM     25  C   UNL     1      53.879  36.619  22.364  1.00  0.00     0.193 C 
BRANCH  25  26
ATOM     26  C   UNL     1      53.549  35.601  23.413  1.00  0.00     0.029 C 
BRANCH  26  27
ATOM     27  C   UNL     1      53.008  36.196  24.724  1.00  0.00    -0.016 C 
ATOM     28  C   UNL     1      53.984  35.879  25.867  1.00  0.00     0.007 C 
ATOM     29  C   UNL     1      52.747  37.707  24.653  1.00  0.00     0.007 C 
ENDBRANCH  26  27
ENDBRANCH  25  26
BRANCH  25  30
ATOM     30  P   UNL     1      55.624  36.993  22.245  1.00  0.00     0.337 P 
ATOM     31  O   UNL     1      55.802  38.429  21.944  1.00  0.00    -0.260 OA
BRANCH  30  32
ATOM     32  O   UNL     1      56.290  36.607  23.504  1.00  0.00    -0.324 OA
ATOM     33  H   UNL     1      57.270  36.572  23.362  1.00  0.00     0.221 HD
ENDBRANCH  30  32
BRANCH  30  34
ATOM     34  O   UNL     1      56.339  35.971  21.362  1.00  0.00    -0.324 OA
ATOM     35  H   UNL     1      57.188  36.359  21.030  1.00  0.00     0.221 HD
ENDBRANCH  30  34
ENDBRANCH  25  30
ENDBRANCH   2  25
TORSDOF 11
ENDMDL
MODEL 18
REMARK VINA RESULT:    -7.188      1.619      2.145
REMARK INTER + INTRA:         -12.934
REMARK INTER:                 -11.628
REMARK INTRA:                  -1.306
REMARK UNBOUND:                -1.543
REMARK SMILES CC(C)C[C@H](C(=O)N[C@@H](Cc1ccccn1)C(=O)Nc1ccc(Cl)c(Cl)c1)P(=O)(O)O
REMARK SMILES IDX 8 1 6 2 7 3 9 5 17 6 19 7 18 8 20 10 27 11 21 12 25 13 22 14
REMARK SMILES IDX 23 15 26 16 24 17 10 18 11 19 12 20 16 21 13 22 15 23 14 24
REMARK SMILES IDX 5 25 4 26 2 27 1 28 3 29 28 30 29 31 31 32 30 34
REMARK H PARENT 8 4 19 9 31 33 30 35
ROOT
ATOM      1  N   UNL     1      54.516  35.597  20.862  1.00  0.00    -0.343 N 
ATOM      2  C   UNL     1      53.143  35.669  20.482  1.00  0.00     0.235 C 
ATOM      3  O   UNL     1      52.506  36.705  20.630  1.00  0.00    -0.274 OA
ATOM      4  H   UNL     1      55.066  34.739  20.718  1.00  0.00     0.164 HD
ENDROOT
BRANCH   1   5
ATOM      5  C   UNL     1      55.101  36.769  21.451  1.00  0.00     0.177 C 
BRANCH   5   6
ATOM      6  C   UNL     1      56.402  37.182  20.841  1.00  0.00     0.247 C 
ATOM      7  N   UNL     1      57.111  38.111  21.633  1.00  0.00    -0.324 N 
ATOM      8  O   UNL     1      56.838  36.809  19.796  1.00  0.00    -0.272 OA
ATOM      9  H   UNL     1      56.599  38.536  22.419  1.00  0.00     0.170 HD
BRANCH   7  10
ATOM     10  C   UNL     1      58.463  38.517  21.451  1.00  0.00     0.042 A 
ATOM     11  C   UNL     1      58.802  39.529  20.585  1.00  0.00     0.048 A 
ATOM     12  C   UNL     1      59.415  37.707  22.019  1.00  0.00     0.028 A 
ATOM     13  C   UNL     1      60.151  39.811  20.389  1.00  0.00     0.061 A 
ATOM     14  C   UNL     1      60.748  38.032  21.841  1.00  0.00     0.024 A 
ATOM     15  C   UNL     1      61.087  39.072  21.032  1.00  0.00     0.059 A 
ATOM     16  Cl  UNL     1      60.570  41.141  19.345  1.00  0.00    -0.083 Cl
ATOM     17  Cl  UNL     1      62.789  39.461  20.801  1.00  0.00    -0.083 Cl
ENDBRANCH   7  10
ENDBRANCH   5   6
BRANCH   5  18
ATOM     18  C   UNL     1      55.411  36.330  22.940  1.00  0.00     0.091 C 
BRANCH  18  19
ATOM     19  C   UNL     1      54.316  36.736  23.891  1.00  0.00     0.043 A 
ATOM     20  C   UNL     1      53.714  37.954  23.716  1.00  0.00     0.024 A 
ATOM     21  N   UNL     1      53.994  35.935  24.885  1.00  0.00    -0.261 NA
ATOM     22  C   UNL     1      52.718  38.369  24.630  1.00  0.00     0.003 A 
ATOM     23  C   UNL     1      53.064  36.290  25.758  1.00  0.00     0.111 A 
ATOM     24  C   UNL     1      52.405  37.501  25.657  1.00  0.00     0.020 A 
ENDBRANCH  18  19
ENDBRANCH   5  18
ENDBRANCH   1   5
BRANCH   2  25
ATOM     25  C   UNL     1      52.584  34.354  19.920  1.00  0.00     0.193 C 
BRANCH  25  26
ATOM     26  C   UNL     1      51.148  34.596  19.565  1.00  0.00     0.029 C 
BRANCH  26  27
ATOM     27  C   UNL     1      50.495  33.458  18.761  1.00  0.00    -0.016 C 
ATOM     28  C   UNL     1      50.143  32.302  19.710  1.00  0.00     0.007 C 
ATOM     29  C   UNL     1      49.251  33.896  17.974  1.00  0.00     0.007 C 
ENDBRANCH  26  27
ENDBRANCH  25  26
BRANCH  25  30
ATOM     30  P   UNL     1      53.550  33.658  18.585  1.00  0.00     0.337 P 
ATOM     31  O   UNL     1      53.203  34.337  17.318  1.00  0.00    -0.260 OA
BRANCH  30  32
ATOM     32  O   UNL     1      54.985  33.788  18.905  1.00  0.00    -0.324 OA
ATOM     33  H   UNL     1      55.478  33.017  18.526  1.00  0.00     0.221 HD
ENDBRANCH  30  32
BRANCH  30  34
ATOM     34  O   UNL     1      53.511  32.131  18.625  1.00  0.00    -0.324 OA
ATOM     35  H   UNL     1      52.575  31.822  18.538  1.00  0.00     0.221 HD
ENDBRANCH  30  34
ENDBRANCH  25  30
ENDBRANCH   2  25
TORSDOF 11
ENDMDL
MODEL 19
REMARK VINA RESULT:    -7.188      7.066     11.054
REMARK INTER + INTRA:         -12.933
REMARK INTER:                 -11.436
REMARK INTRA:                  -1.497
REMARK UNBOUND:                -1.543
REMARK SMILES CC(C)C[C@H](C(=O)N[C@@H](Cc1ccccn1)C(=O)Nc1ccc(Cl)c(Cl)c1)P(=O)(O)O
REMARK SMILES IDX 8 1 6 2 7 3 9 5 17 6 19 7 18 8 20 10 27 11 21 12 25 13 22 14
REMARK SMILES IDX 23 15 26 16 24 17 10 18 11 19 12 20 16 21 13 22 15 23 14 24
REMARK SMILES IDX 5 25 4 26 2 27 1 28 3 29 28 30 29 31 31 32 30 34
REMARK H PARENT 8 4 19 9 31 33 30 35
ROOT
ATOM      1  N   UNL     1      49.311  33.151  17.754  1.00  0.00    -0.343 N 
ATOM      2  C   UNL     1      49.732  33.069  19.114  1.00  0.00     0.235 C 
ATOM      3  O   UNL     1      48.917  32.883  20.010  1.00  0.00    -0.274 OA
ATOM      4  H   UNL     1      49.991  33.282  16.991  1.00  0.00     0.164 HD
ENDROOT
BRANCH   1   5
ATOM      5  C   UNL     1      47.904  33.045  17.489  1.00  0.00     0.177 C 
BRANCH   5   6
ATOM      6  C   UNL     1      47.531  31.920  16.577  1.00  0.00     0.247 C 
ATOM      7  N   UNL     1      48.400  31.797  15.472  1.00  0.00    -0.324 N 
ATOM      8  O   UNL     1      46.604  31.184  16.713  1.00  0.00    -0.272 OA
ATOM      9  H   UNL     1      49.057  32.573  15.309  1.00  0.00     0.170 HD
BRANCH   7  10
ATOM     10  C   UNL     1      48.457  30.704  14.561  1.00  0.00     0.042 A 
ATOM     11  C   UNL     1      49.289  29.631  14.774  1.00  0.00     0.048 A 
ATOM     12  C   UNL     1      47.804  30.882  13.367  1.00  0.00     0.028 A 
ATOM     13  C   UNL     1      49.361  28.643  13.796  1.00  0.00     0.061 A 
ATOM     14  C   UNL     1      47.859  29.868  12.427  1.00  0.00     0.024 A 
ATOM     15  C   UNL     1      48.634  28.774  12.660  1.00  0.00     0.059 A 
ATOM     16  Cl  UNL     1      50.362  27.251  14.105  1.00  0.00    -0.083 Cl
ATOM     17  Cl  UNL     1      48.709  27.500  11.446  1.00  0.00    -0.083 Cl
ENDBRANCH   7  10
ENDBRANCH   5   6
BRANCH   5  18
ATOM     18  C   UNL     1      47.560  34.389  16.723  1.00  0.00     0.091 C 
BRANCH  18  19
ATOM     19  C   UNL     1      46.240  34.308  16.003  1.00  0.00     0.043 A 
ATOM     20  C   UNL     1      45.088  34.481  16.723  1.00  0.00     0.024 A 
ATOM     21  N   UNL     1      46.223  34.033  14.715  1.00  0.00    -0.261 NA
ATOM     22  C   UNL     1      43.840  34.360  16.070  1.00  0.00     0.003 A 
ATOM     23  C   UNL     1      45.073  33.916  14.070  1.00  0.00     0.111 A 
ATOM     24  C   UNL     1      43.862  34.075  14.719  1.00  0.00     0.020 A 
ENDBRANCH  18  19
ENDBRANCH   5  18
ENDBRANCH   1   5
BRANCH   2  25
ATOM     25  C   UNL     1      51.243  33.255  19.311  1.00  0.00     0.193 C 
BRANCH  25  26
ATOM     26  C   UNL     1      51.886  33.136  17.962  1.00  0.00     0.029 C 
BRANCH  26  27
ATOM     27  C   UNL     1      53.189  32.319  17.952  1.00  0.00    -0.016 C 
ATOM     28  C   UNL     1      52.940  30.973  17.254  1.00  0.00     0.007 C 
ATOM     29  C   UNL     1      54.368  33.048  17.292  1.00  0.00     0.007 C 
ENDBRANCH  26  27
ENDBRANCH  25  26
BRANCH  25  30
ATOM     30  P   UNL     1      51.689  34.745  20.193  1.00  0.00     0.337 P 
ATOM     31  O   UNL     1      53.092  34.648  20.649  1.00  0.00    -0.260 OA
BRANCH  30  32
ATOM     32  O   UNL     1      51.473  35.912  19.317  1.00  0.00    -0.324 OA
ATOM     33  H   UNL     1      50.604  35.818  18.851  1.00  0.00     0.221 HD
ENDBRANCH  30  32
BRANCH  30  34
ATOM     34  O   UNL     1      50.615  35.110  21.218  1.00  0.00    -0.324 OA
ATOM     35  H   UNL     1      51.014  35.678  21.925  1.00  0.00     0.221 HD
ENDBRANCH  30  34
ENDBRANCH  25  30
ENDBRANCH   2  25
TORSDOF 11
ENDMDL
MODEL 20
REMARK VINA RESULT:    -7.137      7.079     11.339
REMARK INTER + INTRA:         -12.854
REMARK INTER:                 -11.303
REMARK INTRA:                  -1.551
REMARK UNBOUND:                -1.543
REMARK SMILES CC(C)C[C@H](C(=O)N[C@@H](Cc1ccccn1)C(=O)Nc1ccc(Cl)c(Cl)c1)P(=O)(O)O
REMARK SMILES IDX 8 1 6 2 7 3 9 5 17 6 19 7 18 8 20 10 27 11 21 12 25 13 22 14
REMARK SMILES IDX 23 15 26 16 24 17 10 18 11 19 12 20 16 21 13 22 15 23 14 24
REMARK SMILES IDX 5 25 4 26 2 27 1 28 3 29 28 30 29 31 31 32 30 34
REMARK H PARENT 8 4 19 9 31 33 30 35
ROOT
ATOM      1  N   UNL     1      50.647  32.373  17.483  1.00  0.00    -0.343 N 
ATOM      2  C   UNL     1      50.772  32.646  18.877  1.00  0.00     0.235 C 
ATOM      3  O   UNL     1      49.889  32.316  19.660  1.00  0.00    -0.274 OA
ATOM      4  H   UNL     1      51.395  32.623  16.820  1.00  0.00     0.164 HD
ENDROOT
BRANCH   1   5
ATOM      5  C   UNL     1      49.440  31.734  17.039  1.00  0.00     0.177 C 
BRANCH   5   6
ATOM      6  C   UNL     1      49.557  30.255  16.853  1.00  0.00     0.247 C 
ATOM      7  N   UNL     1      48.305  29.619  16.702  1.00  0.00    -0.324 N 
ATOM      8  O   UNL     1      50.569  29.627  16.837  1.00  0.00    -0.272 OA
ATOM      9  H   UNL     1      47.470  30.182  16.917  1.00  0.00     0.170 HD
BRANCH   7  10
ATOM     10  C   UNL     1      48.086  28.277  16.283  1.00  0.00     0.042 A 
ATOM     11  C   UNL     1      48.322  27.212  17.119  1.00  0.00     0.048 A 
ATOM     12  C   UNL     1      47.836  28.098  14.945  1.00  0.00     0.028 A 
ATOM     13  C   UNL     1      48.174  25.924  16.613  1.00  0.00     0.061 A 
ATOM     14  C   UNL     1      47.654  26.810  14.474  1.00  0.00     0.024 A 
ATOM     15  C   UNL     1      47.827  25.754  15.315  1.00  0.00     0.059 A 
ATOM     16  Cl  UNL     1      48.405  24.582  17.699  1.00  0.00    -0.083 Cl
ATOM     17  Cl  UNL     1      47.610  24.119  14.696  1.00  0.00    -0.083 Cl
ENDBRANCH   7  10
ENDBRANCH   5   6
BRANCH   5  18
ATOM     18  C   UNL     1      49.186  32.358  15.605  1.00  0.00     0.091 C 
BRANCH  18  19
ATOM     19  C   UNL     1      47.902  33.143  15.549  1.00  0.00     0.043 A 
ATOM     20  C   UNL     1      47.070  32.963  14.475  1.00  0.00     0.024 A 
ATOM     21  N   UNL     1      47.631  34.009  16.502  1.00  0.00    -0.261 NA
ATOM     22  C   UNL     1      45.885  33.729  14.384  1.00  0.00     0.003 A 
ATOM     23  C   UNL     1      46.529  34.740  16.452  1.00  0.00     0.111 A 
ATOM     24  C   UNL     1      45.633  34.623  15.405  1.00  0.00     0.020 A 
ENDBRANCH  18  19
ENDBRANCH   5  18
ENDBRANCH   1   5
BRANCH   2  25
ATOM     25  C   UNL     1      52.064  33.385  19.253  1.00  0.00     0.193 C 
BRANCH  25  26
ATOM     26  C   UNL     1      52.754  33.754  17.975  1.00  0.00     0.029 C 
BRANCH  26  27
ATOM     27  C   UNL     1      54.144  33.119  17.801  1.00  0.00    -0.016 C 
ATOM     28  C   UNL     1      55.208  34.049  18.406  1.00  0.00     0.007 C 
ATOM     29  C   UNL     1      54.260  31.714  18.410  1.00  0.00     0.007 C 
ENDBRANCH  26  27
ENDBRANCH  25  26
BRANCH  25  30
ATOM     30  P   UNL     1      51.822  34.763  20.367  1.00  0.00     0.337 P 
ATOM     31  O   UNL     1      51.980  36.032  19.625  1.00  0.00    -0.260 OA
BRANCH  30  32
ATOM     32  O   UNL     1      50.491  34.653  20.994  1.00  0.00    -0.324 OA
ATOM     33  H   UNL     1      49.790  34.748  20.300  1.00  0.00     0.221 HD
ENDBRANCH  30  32
BRANCH  30  34
ATOM     34  O   UNL     1      52.624  34.569  21.654  1.00  0.00    -0.324 OA
ATOM     35  H   UNL     1      52.348  35.248  22.320  1.00  0.00     0.221 HD
ENDBRANCH  30  34
ENDBRANCH  25  30
ENDBRANCH   2  25
TORSDOF 11
ENDMDL
