MODEL 1
REMARK VINA RESULT:    -8.268      0.000      0.000
REMARK INTER + INTRA:         -14.833
REMARK INTER:                 -13.585
REMARK INTRA:                  -1.248
REMARK UNBOUND:                -1.248
REMARK SMILES CC(C)C[C@H](C(=O)N[C@H](C(=O)Nc1ccc(C(=O)C(F)(F)F)cc1)C(C)C)P(=O)(O)O
REMARK SMILES IDX 9 1 8 2 6 3 7 4 5 6 4 7 2 8 1 9 3 10 28 11 29 12 30 13 31 15
REMARK SMILES IDX 10 17 12 18 11 19 13 21 14 22 24 23 15 24 23 25 16 26 17 27
REMARK SMILES IDX 18 28 19 29 20 30 21 31 22 32 25 33 26 34 27 35
REMARK H PARENT 8 5 30 14 31 16 12 20
ROOT
ATOM      1  C   UNL     1      53.438  36.952  23.126  1.00  0.00     0.174 C 
ENDROOT
BRANCH   1   2
ATOM      2  N   UNL     1      53.418  35.756  22.394  1.00  0.00    -0.343 N 
ATOM      3  C   UNL     1      52.674  35.768  21.203  1.00  0.00     0.235 C 
ATOM      4  O   UNL     1      52.193  36.771  20.832  1.00  0.00    -0.274 OA
ATOM      5  H   UNL     1      53.921  34.915  22.712  1.00  0.00     0.164 HD
BRANCH   3   6
ATOM      6  C   UNL     1      52.542  34.427  20.498  1.00  0.00     0.193 C 
BRANCH   6   7
ATOM      7  C   UNL     1      51.267  34.443  19.692  1.00  0.00     0.029 C 
BRANCH   7   8
ATOM      8  C   UNL     1      50.337  33.258  19.947  1.00  0.00    -0.016 C 
ATOM      9  C   UNL     1      50.933  31.907  19.569  1.00  0.00     0.007 C 
ATOM     10  C   UNL     1      49.001  33.501  19.272  1.00  0.00     0.007 C 
ENDBRANCH   7   8
ENDBRANCH   6   7
BRANCH   6  11
ATOM     11  P   UNL     1      54.005  33.886  19.628  1.00  0.00     0.337 P 
ATOM     12  O   UNL     1      53.767  33.904  18.135  1.00  0.00    -0.260 OA
BRANCH  11  13
ATOM     13  O   UNL     1      54.241  32.486  20.026  1.00  0.00    -0.324 OA
ATOM     14  H   UNL     1      53.393  32.085  20.344  1.00  0.00     0.221 HD
ENDBRANCH  11  13
BRANCH  11  15
ATOM     15  O   UNL     1      55.177  34.727  20.111  1.00  0.00    -0.324 OA
ATOM     16  H   UNL     1      55.802  34.157  20.626  1.00  0.00     0.221 HD
ENDBRANCH  11  15
ENDBRANCH   6  11
ENDBRANCH   3   6
ENDBRANCH   1   2
BRANCH   1  17
ATOM     17  C   UNL     1      54.697  37.748  23.112  1.00  0.00     0.247 C 
ATOM     18  N   UNL     1      55.774  37.023  22.545  1.00  0.00    -0.324 N 
ATOM     19  O   UNL     1      54.738  38.835  23.520  1.00  0.00    -0.272 OA
ATOM     20  H   UNL     1      55.667  36.013  22.376  1.00  0.00     0.170 HD
BRANCH  18  21
ATOM     21  C   UNL     1      57.027  37.672  22.197  1.00  0.00     0.041 A 
ATOM     22  C   UNL     1      58.012  38.102  23.061  1.00  0.00     0.027 A 
ATOM     23  C   UNL     1      57.014  38.146  20.885  1.00  0.00     0.027 A 
ATOM     24  C   UNL     1      59.124  38.784  22.544  1.00  0.00     0.014 A 
ATOM     25  C   UNL     1      58.083  38.850  20.376  1.00  0.00     0.014 A 
ATOM     26  C   UNL     1      59.149  39.129  21.204  1.00  0.00     0.027 A 
BRANCH  26  27
ATOM     27  C   UNL     1      60.164  39.974  20.479  1.00  0.00     0.266 C 
ATOM     28  O   UNL     1      60.686  39.646  19.445  1.00  0.00    -0.284 OA
BRANCH  27  29
ATOM     29  C   UNL     1      60.056  41.444  20.878  1.00  0.00     0.454 C 
ATOM     30  F   UNL     1      58.836  41.954  21.112  1.00  0.00    -0.163 F 
ATOM     31  F   UNL     1      60.526  42.046  19.780  1.00  0.00    -0.163 F 
ATOM     32  F   UNL     1      60.822  41.746  21.908  1.00  0.00    -0.163 F 
ENDBRANCH  27  29
ENDBRANCH  26  27
ENDBRANCH  18  21
ENDBRANCH   1  17
BRANCH   1  33
ATOM     33  C   UNL     1      53.315  36.444  24.643  1.00  0.00     0.015 C 
ATOM     34  C   UNL     1      54.668  36.190  25.297  1.00  0.00     0.010 C 
ATOM     35  C   UNL     1      52.485  37.359  25.545  1.00  0.00     0.010 C 
ENDBRANCH   1  33
TORSDOF 12
ENDMDL
MODEL 2
REMARK VINA RESULT:    -8.097      4.979      8.994
REMARK INTER + INTRA:         -14.553
REMARK INTER:                 -12.827
REMARK INTRA:                  -1.726
REMARK UNBOUND:                -1.248
REMARK SMILES CC(C)C[C@H](C(=O)N[C@H](C(=O)Nc1ccc(C(=O)C(F)(F)F)cc1)C(C)C)P(=O)(O)O
REMARK SMILES IDX 9 1 8 2 6 3 7 4 5 6 4 7 2 8 1 9 3 10 28 11 29 12 30 13 31 15
REMARK SMILES IDX 10 17 12 18 11 19 13 21 14 22 24 23 15 24 23 25 16 26 17 27
REMARK SMILES IDX 18 28 19 29 20 30 21 31 22 32 25 33 26 34 27 35
REMARK H PARENT 8 5 30 14 31 16 12 20
ROOT
ATOM      1  C   UNL     1      54.183  36.353  22.514  1.00  0.00     0.174 C 
ENDROOT
BRANCH   1   2
ATOM      2  N   UNL     1      55.114  37.370  22.257  1.00  0.00    -0.343 N 
ATOM      3  C   UNL     1      55.985  37.157  21.177  1.00  0.00     0.235 C 
ATOM      4  O   UNL     1      55.843  36.214  20.496  1.00  0.00    -0.274 OA
ATOM      5  H   UNL     1      55.156  38.226  22.830  1.00  0.00     0.164 HD
BRANCH   3   6
ATOM      6  C   UNL     1      57.080  38.198  21.002  1.00  0.00     0.193 C 
BRANCH   6   7
ATOM      7  C   UNL     1      57.551  38.621  22.371  1.00  0.00     0.029 C 
BRANCH   7   8
ATOM      8  C   UNL     1      58.608  37.710  22.992  1.00  0.00    -0.016 C 
ATOM      9  C   UNL     1      58.077  36.807  24.100  1.00  0.00     0.007 C 
ATOM     10  C   UNL     1      59.793  38.537  23.449  1.00  0.00     0.007 C 
ENDBRANCH   7   8
ENDBRANCH   6   7
BRANCH   6  11
ATOM     11  P   UNL     1      58.363  37.755  19.840  1.00  0.00     0.337 P 
ATOM     12  O   UNL     1      59.464  38.792  19.851  1.00  0.00    -0.260 OA
BRANCH  11  13
ATOM     13  O   UNL     1      57.747  37.773  18.500  1.00  0.00    -0.324 OA
ATOM     14  H   UNL     1      57.124  37.008  18.414  1.00  0.00     0.221 HD
ENDBRANCH  11  13
BRANCH  11  15
ATOM     15  O   UNL     1      58.804  36.333  20.148  1.00  0.00    -0.324 OA
ATOM     16  H   UNL     1      58.922  36.228  21.125  1.00  0.00     0.221 HD
ENDBRANCH  11  15
ENDBRANCH   6  11
ENDBRANCH   3   6
ENDBRANCH   1   2
BRANCH   1  17
ATOM     17  C   UNL     1      53.089  36.154  21.523  1.00  0.00     0.247 C 
ATOM     18  N   UNL     1      53.013  34.809  21.084  1.00  0.00    -0.324 N 
ATOM     19  O   UNL     1      52.400  37.029  21.189  1.00  0.00    -0.272 OA
ATOM     20  H   UNL     1      53.779  34.161  21.314  1.00  0.00     0.170 HD
BRANCH  18  21
ATOM     21  C   UNL     1      51.877  34.325  20.316  1.00  0.00     0.041 A 
ATOM     22  C   UNL     1      50.700  33.802  20.807  1.00  0.00     0.027 A 
ATOM     23  C   UNL     1      52.213  34.115  18.979  1.00  0.00     0.027 A 
ATOM     24  C   UNL     1      49.744  33.309  19.907  1.00  0.00     0.014 A 
ATOM     25  C   UNL     1      51.296  33.596  18.092  1.00  0.00     0.014 A 
ATOM     26  C   UNL     1      50.051  33.234  18.560  1.00  0.00     0.027 A 
BRANCH  26  27
ATOM     27  C   UNL     1      49.238  32.615  17.453  1.00  0.00     0.266 C 
ATOM     28  O   UNL     1      49.286  31.447  17.165  1.00  0.00    -0.284 OA
BRANCH  27  29
ATOM     29  C   UNL     1      48.011  33.460  17.120  1.00  0.00     0.454 C 
ATOM     30  F   UNL     1      48.024  34.762  17.448  1.00  0.00    -0.163 F 
ATOM     31  F   UNL     1      47.079  32.877  17.882  1.00  0.00    -0.163 F 
ATOM     32  F   UNL     1      47.662  33.369  15.851  1.00  0.00    -0.163 F 
ENDBRANCH  27  29
ENDBRANCH  26  27
ENDBRANCH  18  21
ENDBRANCH   1  17
BRANCH   1  33
ATOM     33  C   UNL     1      53.429  36.883  23.827  1.00  0.00     0.015 C 
ATOM     34  C   UNL     1      53.712  36.032  25.060  1.00  0.00     0.010 C 
ATOM     35  C   UNL     1      53.703  38.352  24.158  1.00  0.00     0.010 C 
ENDBRANCH   1  33
TORSDOF 12
ENDMDL
MODEL 3
REMARK VINA RESULT:    -8.084      3.028      4.715
REMARK INTER + INTRA:         -14.530
REMARK INTER:                 -13.358
REMARK INTRA:                  -1.173
REMARK UNBOUND:                -1.248
REMARK SMILES CC(C)C[C@H](C(=O)N[C@H](C(=O)Nc1ccc(C(=O)C(F)(F)F)cc1)C(C)C)P(=O)(O)O
REMARK SMILES IDX 9 1 8 2 6 3 7 4 5 6 4 7 2 8 1 9 3 10 28 11 29 12 30 13 31 15
REMARK SMILES IDX 10 17 12 18 11 19 13 21 14 22 24 23 15 24 23 25 16 26 17 27
REMARK SMILES IDX 18 28 19 29 20 30 21 31 22 32 25 33 26 34 27 35
REMARK H PARENT 8 5 30 14 31 16 12 20
ROOT
ATOM      1  C   UNL     1      57.213  37.900  23.075  1.00  0.00     0.174 C 
ENDROOT
BRANCH   1   2
ATOM      2  N   UNL     1      56.061  37.108  22.971  1.00  0.00    -0.343 N 
ATOM      3  C   UNL     1      54.838  37.755  23.206  1.00  0.00     0.235 C 
ATOM      4  O   UNL     1      54.821  38.914  23.381  1.00  0.00    -0.274 OA
ATOM      5  H   UNL     1      56.110  36.106  22.735  1.00  0.00     0.164 HD
BRANCH   3   6
ATOM      6  C   UNL     1      53.612  36.854  23.232  1.00  0.00     0.193 C 
BRANCH   6   7
ATOM      7  C   UNL     1      52.529  37.556  24.012  1.00  0.00     0.029 C 
BRANCH   7   8
ATOM      8  C   UNL     1      52.649  37.427  25.530  1.00  0.00    -0.016 C 
ATOM      9  C   UNL     1      52.938  38.742  26.245  1.00  0.00     0.007 C 
ATOM     10  C   UNL     1      53.666  36.356  25.874  1.00  0.00     0.007 C 
ENDBRANCH   7   8
ENDBRANCH   6   7
BRANCH   6  11
ATOM     11  P   UNL     1      53.127  36.196  21.645  1.00  0.00     0.337 P 
ATOM     12  O   UNL     1      54.347  35.907  20.799  1.00  0.00    -0.260 OA
BRANCH  11  13
ATOM     13  O   UNL     1      52.354  37.253  20.965  1.00  0.00    -0.324 OA
ATOM     14  H   UNL     1      51.759  36.842  20.288  1.00  0.00     0.221 HD
ENDBRANCH  11  13
BRANCH  11  15
ATOM     15  O   UNL     1      52.208  35.009  21.889  1.00  0.00    -0.324 OA
ATOM     16  H   UNL     1      51.275  35.328  21.982  1.00  0.00     0.221 HD
ENDBRANCH  11  15
ENDBRANCH   6  11
ENDBRANCH   3   6
ENDBRANCH   1   2
BRANCH   1  17
ATOM     17  C   UNL     1      57.894  38.296  21.811  1.00  0.00     0.247 C 
ATOM     18  N   UNL     1      59.019  39.123  22.054  1.00  0.00    -0.324 N 
ATOM     19  O   UNL     1      57.514  37.935  20.773  1.00  0.00    -0.272 OA
ATOM     20  H   UNL     1      59.159  39.517  22.995  1.00  0.00     0.170 HD
BRANCH  18  21
ATOM     21  C   UNL     1      59.979  39.426  21.005  1.00  0.00     0.041 A 
ATOM     22  C   UNL     1      61.081  38.680  20.642  1.00  0.00     0.027 A 
ATOM     23  C   UNL     1      59.885  40.753  20.589  1.00  0.00     0.027 A 
ATOM     24  C   UNL     1      61.943  39.175  19.652  1.00  0.00     0.014 A 
ATOM     25  C   UNL     1      60.749  41.263  19.646  1.00  0.00     0.014 A 
ATOM     26  C   UNL     1      61.750  40.452  19.156  1.00  0.00     0.027 A 
BRANCH  26  27
ATOM     27  C   UNL     1      62.628  41.224  18.206  1.00  0.00     0.266 C 
ATOM     28  O   UNL     1      62.506  41.187  17.009  1.00  0.00    -0.284 OA
BRANCH  27  29
ATOM     29  C   UNL     1      63.287  42.416  18.897  1.00  0.00     0.454 C 
ATOM     30  F   UNL     1      62.653  43.599  18.874  1.00  0.00    -0.163 F 
ATOM     31  F   UNL     1      64.399  42.556  18.167  1.00  0.00    -0.163 F 
ATOM     32  F   UNL     1      63.612  42.159  20.149  1.00  0.00    -0.163 F 
ENDBRANCH  27  29
ENDBRANCH  26  27
ENDBRANCH  18  21
ENDBRANCH   1  17
BRANCH   1  33
ATOM     33  C   UNL     1      58.259  36.916  23.791  1.00  0.00     0.015 C 
ATOM     34  C   UNL     1      57.659  36.169  24.976  1.00  0.00     0.010 C 
ATOM     35  C   UNL     1      58.920  35.909  22.847  1.00  0.00     0.010 C 
ENDBRANCH   1  33
TORSDOF 12
ENDMDL
MODEL 4
REMARK VINA RESULT:    -8.049      5.069      7.724
REMARK INTER + INTRA:         -14.474
REMARK INTER:                 -12.851
REMARK INTRA:                  -1.623
REMARK UNBOUND:                -1.248
REMARK SMILES CC(C)C[C@H](C(=O)N[C@H](C(=O)Nc1ccc(C(=O)C(F)(F)F)cc1)C(C)C)P(=O)(O)O
REMARK SMILES IDX 9 1 8 2 6 3 7 4 5 6 4 7 2 8 1 9 3 10 28 11 29 12 30 13 31 15
REMARK SMILES IDX 10 17 12 18 11 19 13 21 14 22 24 23 15 24 23 25 16 26 17 27
REMARK SMILES IDX 18 28 19 29 20 30 21 31 22 32 25 33 26 34 27 35
REMARK H PARENT 8 5 30 14 31 16 12 20
ROOT
ATOM      1  C   UNL     1      50.147  32.769  18.193  1.00  0.00     0.174 C 
ENDROOT
BRANCH   1   2
ATOM      2  N   UNL     1      49.397  32.993  17.030  1.00  0.00    -0.343 N 
ATOM      3  C   UNL     1      48.072  33.417  17.217  1.00  0.00     0.235 C 
ATOM      4  O   UNL     1      47.686  33.650  18.298  1.00  0.00    -0.274 OA
ATOM      5  H   UNL     1      49.797  32.855  16.090  1.00  0.00     0.164 HD
BRANCH   3   6
ATOM      6  C   UNL     1      47.230  33.515  15.954  1.00  0.00     0.193 C 
BRANCH   6   7
ATOM      7  C   UNL     1      47.207  32.158  15.297  1.00  0.00     0.029 C 
BRANCH   7   8
ATOM      8  C   UNL     1      47.337  32.184  13.775  1.00  0.00    -0.016 C 
ATOM      9  C   UNL     1      46.292  31.344  13.047  1.00  0.00     0.007 C 
ATOM     10  C   UNL     1      48.750  31.807  13.375  1.00  0.00     0.007 C 
ENDBRANCH   7   8
ENDBRANCH   6   7
BRANCH   6  11
ATOM     11  P   UNL     1      45.642  34.305  16.166  1.00  0.00     0.337 P 
ATOM     12  O   UNL     1      45.094  34.752  14.830  1.00  0.00    -0.260 OA
BRANCH  11  13
ATOM     13  O   UNL     1      45.874  35.513  16.980  1.00  0.00    -0.324 OA
ATOM     14  H   UNL     1      46.128  35.248  17.899  1.00  0.00     0.221 HD
ENDBRANCH  11  13
BRANCH  11  15
ATOM     15  O   UNL     1      44.749  33.359  16.953  1.00  0.00    -0.324 OA
ATOM     16  H   UNL     1      45.169  33.159  17.828  1.00  0.00     0.221 HD
ENDBRANCH  11  15
ENDBRANCH   6  11
ENDBRANCH   3   6
ENDBRANCH   1   2
BRANCH   1  17
ATOM     17  C   UNL     1      51.215  33.753  18.526  1.00  0.00     0.247 C 
ATOM     18  N   UNL     1      51.087  34.244  19.849  1.00  0.00    -0.324 N 
ATOM     19  O   UNL     1      52.039  34.043  17.759  1.00  0.00    -0.272 OA
ATOM     20  H   UNL     1      50.225  34.049  20.376  1.00  0.00     0.170 HD
BRANCH  18  21
ATOM     21  C   UNL     1      52.147  35.016  20.478  1.00  0.00     0.041 A 
ATOM     22  C   UNL     1      53.502  34.770  20.423  1.00  0.00     0.027 A 
ATOM     23  C   UNL     1      51.646  35.875  21.455  1.00  0.00     0.027 A 
ATOM     24  C   UNL     1      54.373  35.584  21.164  1.00  0.00     0.014 A 
ATOM     25  C   UNL     1      52.492  36.651  22.216  1.00  0.00     0.014 A 
ATOM     26  C   UNL     1      53.852  36.526  22.034  1.00  0.00     0.027 A 
BRANCH  26  27
ATOM     27  C   UNL     1      54.592  37.395  23.017  1.00  0.00     0.266 C 
ATOM     28  O   UNL     1      54.816  38.564  22.834  1.00  0.00    -0.284 OA
BRANCH  27  29
ATOM     29  C   UNL     1      54.545  36.811  24.427  1.00  0.00     0.454 C 
ATOM     30  F   UNL     1      53.794  35.719  24.641  1.00  0.00    -0.163 F 
ATOM     31  F   UNL     1      53.975  37.813  25.104  1.00  0.00    -0.163 F 
ATOM     32  F   UNL     1      55.746  36.574  24.917  1.00  0.00    -0.163 F 
ENDBRANCH  27  29
ENDBRANCH  26  27
ENDBRANCH  18  21
ENDBRANCH   1  17
BRANCH   1  33
ATOM     33  C   UNL     1      50.950  31.424  17.846  1.00  0.00     0.015 C 
ATOM     34  C   UNL     1      50.675  30.295  18.833  1.00  0.00     0.010 C 
ATOM     35  C   UNL     1      50.728  30.910  16.422  1.00  0.00     0.010 C 
ENDBRANCH   1  33
TORSDOF 12
ENDMDL
MODEL 5
REMARK VINA RESULT:    -7.999      4.823      7.238
REMARK INTER + INTRA:         -14.391
REMARK INTER:                 -12.604
REMARK INTRA:                  -1.787
REMARK UNBOUND:                -1.248
REMARK SMILES CC(C)C[C@H](C(=O)N[C@H](C(=O)Nc1ccc(C(=O)C(F)(F)F)cc1)C(C)C)P(=O)(O)O
REMARK SMILES IDX 9 1 8 2 6 3 7 4 5 6 4 7 2 8 1 9 3 10 28 11 29 12 30 13 31 15
REMARK SMILES IDX 10 17 12 18 11 19 13 21 14 22 24 23 15 24 23 25 16 26 17 27
REMARK SMILES IDX 18 28 19 29 20 30 21 31 22 32 25 33 26 34 27 35
REMARK H PARENT 8 5 30 14 31 16 12 20
ROOT
ATOM      1  C   UNL     1      49.850  32.880  18.561  1.00  0.00     0.174 C 
ENDROOT
BRANCH   1   2
ATOM      2  N   UNL     1      49.210  33.123  17.337  1.00  0.00    -0.343 N 
ATOM      3  C   UNL     1      47.832  33.387  17.397  1.00  0.00     0.235 C 
ATOM      4  O   UNL     1      47.307  33.485  18.440  1.00  0.00    -0.274 OA
ATOM      5  H   UNL     1      49.723  33.108  16.443  1.00  0.00     0.164 HD
BRANCH   3   6
ATOM      6  C   UNL     1      47.127  33.503  16.054  1.00  0.00     0.193 C 
BRANCH   6   7
ATOM      7  C   UNL     1      47.164  32.153  15.385  1.00  0.00     0.029 C 
BRANCH   7   8
ATOM      8  C   UNL     1      47.890  32.126  14.041  1.00  0.00    -0.016 C 
ATOM      9  C   UNL     1      47.001  31.752  12.860  1.00  0.00     0.007 C 
ATOM     10  C   UNL     1      49.113  31.234  14.138  1.00  0.00     0.007 C 
ENDBRANCH   7   8
ENDBRANCH   6   7
BRANCH   6  11
ATOM     11  P   UNL     1      45.531  34.302  16.108  1.00  0.00     0.337 P 
ATOM     12  O   UNL     1      45.152  34.816  14.737  1.00  0.00    -0.260 OA
BRANCH  11  13
ATOM     13  O   UNL     1      45.670  35.470  16.999  1.00  0.00    -0.324 OA
ATOM     14  H   UNL     1      46.165  36.187  16.528  1.00  0.00     0.221 HD
ENDBRANCH  11  13
BRANCH  11  15
ATOM     15  O   UNL     1      44.541  33.334  16.737  1.00  0.00    -0.324 OA
ATOM     16  H   UNL     1      44.939  32.939  17.554  1.00  0.00     0.221 HD
ENDBRANCH  11  15
ENDBRANCH   6  11
ENDBRANCH   3   6
ENDBRANCH   1   2
BRANCH   1  17
ATOM     17  C   UNL     1      50.509  34.033  19.234  1.00  0.00     0.247 C 
ATOM     18  N   UNL     1      51.452  33.611  20.203  1.00  0.00    -0.324 N 
ATOM     19  O   UNL     1      50.252  35.133  18.956  1.00  0.00    -0.272 OA
ATOM     20  H   UNL     1      51.473  32.621  20.486  1.00  0.00     0.170 HD
BRANCH  18  21
ATOM     21  C   UNL     1      52.392  34.542  20.805  1.00  0.00     0.041 A 
ATOM     22  C   UNL     1      52.103  35.579  21.666  1.00  0.00     0.027 A 
ATOM     23  C   UNL     1      53.629  34.513  20.162  1.00  0.00     0.027 A 
ATOM     24  C   UNL     1      53.139  36.428  22.085  1.00  0.00     0.014 A 
ATOM     25  C   UNL     1      54.643  35.367  20.537  1.00  0.00     0.014 A 
ATOM     26  C   UNL     1      54.398  36.293  21.527  1.00  0.00     0.027 A 
BRANCH  26  27
ATOM     27  C   UNL     1      55.602  37.176  21.724  1.00  0.00     0.266 C 
ATOM     28  O   UNL     1      56.205  37.691  20.817  1.00  0.00    -0.284 OA
BRANCH  27  29
ATOM     29  C   UNL     1      55.641  37.764  23.133  1.00  0.00     0.454 C 
ATOM     30  F   UNL     1      54.663  38.606  23.501  1.00  0.00    -0.163 F 
ATOM     31  F   UNL     1      56.771  38.478  23.084  1.00  0.00    -0.163 F 
ATOM     32  F   UNL     1      55.746  36.838  24.065  1.00  0.00    -0.163 F 
ENDBRANCH  27  29
ENDBRANCH  26  27
ENDBRANCH  18  21
ENDBRANCH   1  17
BRANCH   1  33
ATOM     33  C   UNL     1      51.068  31.923  18.143  1.00  0.00     0.015 C 
ATOM     34  C   UNL     1      50.735  30.442  18.280  1.00  0.00     0.010 C 
ATOM     35  C   UNL     1      51.619  32.185  16.740  1.00  0.00     0.010 C 
ENDBRANCH   1  33
TORSDOF 12
ENDMDL
MODEL 6
REMARK VINA RESULT:    -7.991      3.678      5.842
REMARK INTER + INTRA:         -14.378
REMARK INTER:                 -13.194
REMARK INTRA:                  -1.185
REMARK UNBOUND:                -1.248
REMARK SMILES CC(C)C[C@H](C(=O)N[C@H](C(=O)Nc1ccc(C(=O)C(F)(F)F)cc1)C(C)C)P(=O)(O)O
REMARK SMILES IDX 9 1 8 2 6 3 7 4 5 6 4 7 2 8 1 9 3 10 28 11 29 12 30 13 31 15
REMARK SMILES IDX 10 17 12 18 11 19 13 21 14 22 24 23 15 24 23 25 16 26 17 27
REMARK SMILES IDX 18 28 19 29 20 30 21 31 22 32 25 33 26 34 27 35
REMARK H PARENT 8 5 30 14 31 16 12 20
ROOT
ATOM      1  C   UNL     1      57.659  38.476  21.927  1.00  0.00     0.174 C 
ENDROOT
BRANCH   1   2
ATOM      2  N   UNL     1      56.309  38.293  22.259  1.00  0.00    -0.343 N 
ATOM      3  C   UNL     1      56.044  37.410  23.317  1.00  0.00     0.235 C 
ATOM      4  O   UNL     1      56.935  36.949  23.923  1.00  0.00    -0.274 OA
ATOM      5  H   UNL     1      55.555  38.779  21.754  1.00  0.00     0.164 HD
BRANCH   3   6
ATOM      6  C   UNL     1      54.574  37.111  23.570  1.00  0.00     0.193 C 
BRANCH   6   7
ATOM      7  C   UNL     1      54.011  38.211  24.433  1.00  0.00     0.029 C 
BRANCH   7   8
ATOM      8  C   UNL     1      53.564  37.765  25.825  1.00  0.00    -0.016 C 
ATOM      9  C   UNL     1      53.783  36.282  26.103  1.00  0.00     0.007 C 
ATOM     10  C   UNL     1      52.126  38.184  26.059  1.00  0.00     0.007 C 
ENDBRANCH   7   8
ENDBRANCH   6   7
BRANCH   6  11
ATOM     11  P   UNL     1      53.627  36.704  22.111  1.00  0.00     0.337 P 
ATOM     12  O   UNL     1      54.549  36.340  20.969  1.00  0.00    -0.260 OA
BRANCH  11  13
ATOM     13  O   UNL     1      52.899  37.927  21.723  1.00  0.00    -0.324 OA
ATOM     14  H   UNL     1      53.546  38.657  21.555  1.00  0.00     0.221 HD
ENDBRANCH  11  13
BRANCH  11  15
ATOM     15  O   UNL     1      52.610  35.640  22.493  1.00  0.00    -0.324 OA
ATOM     16  H   UNL     1      53.065  34.909  22.982  1.00  0.00     0.221 HD
ENDBRANCH  11  15
ENDBRANCH   6  11
ENDBRANCH   3   6
ENDBRANCH   1   2
BRANCH   1  17
ATOM     17  C   UNL     1      58.339  39.694  22.450  1.00  0.00     0.247 C 
ATOM     18  N   UNL     1      59.734  39.497  22.599  1.00  0.00    -0.324 N 
ATOM     19  O   UNL     1      57.751  40.669  22.684  1.00  0.00    -0.272 OA
ATOM     20  H   UNL     1      60.118  38.544  22.526  1.00  0.00     0.170 HD
BRANCH  18  21
ATOM     21  C   UNL     1      60.635  40.610  22.852  1.00  0.00     0.041 A 
ATOM     22  C   UNL     1      61.367  41.318  21.923  1.00  0.00     0.027 A 
ATOM     23  C   UNL     1      60.972  40.702  24.202  1.00  0.00     0.027 A 
ATOM     24  C   UNL     1      62.249  42.315  22.366  1.00  0.00     0.014 A 
ATOM     25  C   UNL     1      61.866  41.651  24.646  1.00  0.00     0.014 A 
ATOM     26  C   UNL     1      62.469  42.478  23.722  1.00  0.00     0.027 A 
BRANCH  26  27
ATOM     27  C   UNL     1      63.467  43.378  24.403  1.00  0.00     0.266 C 
ATOM     28  O   UNL     1      64.523  42.994  24.834  1.00  0.00    -0.284 OA
BRANCH  27  29
ATOM     29  C   UNL     1      63.256  44.840  24.017  1.00  0.00     0.454 C 
ATOM     30  F   UNL     1      63.880  45.309  22.924  1.00  0.00    -0.163 F 
ATOM     31  F   UNL     1      63.791  45.467  25.070  1.00  0.00    -0.163 F 
ATOM     32  F   UNL     1      61.980  45.159  23.918  1.00  0.00    -0.163 F 
ENDBRANCH  27  29
ENDBRANCH  26  27
ENDBRANCH  18  21
ENDBRANCH   1  17
BRANCH   1  33
ATOM     33  C   UNL     1      57.608  38.709  20.340  1.00  0.00     0.015 C 
ATOM     34  C   UNL     1      58.689  39.661  19.843  1.00  0.00     0.010 C 
ATOM     35  C   UNL     1      57.657  37.421  19.515  1.00  0.00     0.010 C 
ENDBRANCH   1  33
TORSDOF 12
ENDMDL
MODEL 7
REMARK VINA RESULT:    -7.757      3.644      5.466
REMARK INTER + INTRA:         -13.993
REMARK INTER:                 -12.488
REMARK INTRA:                  -1.505
REMARK UNBOUND:                -1.248
REMARK SMILES CC(C)C[C@H](C(=O)N[C@H](C(=O)Nc1ccc(C(=O)C(F)(F)F)cc1)C(C)C)P(=O)(O)O
REMARK SMILES IDX 9 1 8 2 6 3 7 4 5 6 4 7 2 8 1 9 3 10 28 11 29 12 30 13 31 15
REMARK SMILES IDX 10 17 12 18 11 19 13 21 14 22 24 23 15 24 23 25 16 26 17 27
REMARK SMILES IDX 18 28 19 29 20 30 21 31 22 32 25 33 26 34 27 35
REMARK H PARENT 8 5 30 14 31 16 12 20
ROOT
ATOM      1  C   UNL     1      57.321  37.299  21.816  1.00  0.00     0.174 C 
ENDROOT
BRANCH   1   2
ATOM      2  N   UNL     1      56.145  36.585  22.087  1.00  0.00    -0.343 N 
ATOM      3  C   UNL     1      54.988  37.350  22.300  1.00  0.00     0.235 C 
ATOM      4  O   UNL     1      55.028  38.512  22.155  1.00  0.00    -0.274 OA
ATOM      5  H   UNL     1      56.132  35.555  22.128  1.00  0.00     0.164 HD
BRANCH   3   6
ATOM      6  C   UNL     1      53.757  36.570  22.735  1.00  0.00     0.193 C 
BRANCH   6   7
ATOM      7  C   UNL     1      52.834  37.515  23.463  1.00  0.00     0.029 C 
BRANCH   7   8
ATOM      8  C   UNL     1      52.745  37.286  24.971  1.00  0.00    -0.016 C 
ATOM      9  C   UNL     1      52.866  38.558  25.802  1.00  0.00     0.007 C 
ATOM     10  C   UNL     1      53.753  36.233  25.389  1.00  0.00     0.007 C 
ENDBRANCH   7   8
ENDBRANCH   6   7
BRANCH   6  11
ATOM     11  P   UNL     1      53.003  35.577  21.456  1.00  0.00     0.337 P 
ATOM     12  O   UNL     1      52.322  36.462  20.436  1.00  0.00    -0.260 OA
BRANCH  11  13
ATOM     13  O   UNL     1      51.959  34.765  22.109  1.00  0.00    -0.324 OA
ATOM     14  H   UNL     1      51.221  35.354  22.408  1.00  0.00     0.221 HD
ENDBRANCH  11  13
BRANCH  11  15
ATOM     15  O   UNL     1      54.064  34.640  20.902  1.00  0.00    -0.324 OA
ATOM     16  H   UNL     1      54.897  34.736  21.428  1.00  0.00     0.221 HD
ENDBRANCH  11  15
ENDBRANCH   6  11
ENDBRANCH   3   6
ENDBRANCH   1   2
BRANCH   1  17
ATOM     17  C   UNL     1      57.942  37.121  20.474  1.00  0.00     0.247 C 
ATOM     18  N   UNL     1      57.777  38.268  19.659  1.00  0.00    -0.324 N 
ATOM     19  O   UNL     1      58.495  36.141  20.181  1.00  0.00    -0.272 OA
ATOM     20  H   UNL     1      57.125  39.007  19.957  1.00  0.00     0.170 HD
BRANCH  18  21
ATOM     21  C   UNL     1      58.506  38.424  18.411  1.00  0.00     0.041 A 
ATOM     22  C   UNL     1      58.422  37.627  17.290  1.00  0.00     0.027 A 
ATOM     23  C   UNL     1      59.590  39.290  18.554  1.00  0.00     0.027 A 
ATOM     24  C   UNL     1      59.268  37.888  16.201  1.00  0.00     0.014 A 
ATOM     25  C   UNL     1      60.451  39.527  17.506  1.00  0.00     0.014 A 
ATOM     26  C   UNL     1      60.256  38.849  16.321  1.00  0.00     0.027 A 
BRANCH  26  27
ATOM     27  C   UNL     1      61.349  39.188  15.341  1.00  0.00     0.266 C 
ATOM     28  O   UNL     1      61.899  40.258  15.302  1.00  0.00    -0.284 OA
BRANCH  27  29
ATOM     29  C   UNL     1      62.029  37.931  14.804  1.00  0.00     0.454 C 
ATOM     30  F   UNL     1      62.364  36.964  15.674  1.00  0.00    -0.163 F 
ATOM     31  F   UNL     1      63.171  38.437  14.327  1.00  0.00    -0.163 F 
ATOM     32  F   UNL     1      61.351  37.369  13.822  1.00  0.00    -0.163 F 
ENDBRANCH  27  29
ENDBRANCH  26  27
ENDBRANCH  18  21
ENDBRANCH   1  17
BRANCH   1  33
ATOM     33  C   UNL     1      58.380  36.641  22.826  1.00  0.00     0.015 C 
ATOM     34  C   UNL     1      59.632  37.490  23.013  1.00  0.00     0.010 C 
ATOM     35  C   UNL     1      57.802  36.291  24.199  1.00  0.00     0.010 C 
ENDBRANCH   1  33
TORSDOF 12
ENDMDL
MODEL 8
REMARK VINA RESULT:    -7.662      3.660      5.711
REMARK INTER + INTRA:         -13.837
REMARK INTER:                 -12.694
REMARK INTRA:                  -1.143
REMARK UNBOUND:                -1.248
REMARK SMILES CC(C)C[C@H](C(=O)N[C@H](C(=O)Nc1ccc(C(=O)C(F)(F)F)cc1)C(C)C)P(=O)(O)O
REMARK SMILES IDX 9 1 8 2 6 3 7 4 5 6 4 7 2 8 1 9 3 10 28 11 29 12 30 13 31 15
REMARK SMILES IDX 10 17 12 18 11 19 13 21 14 22 24 23 15 24 23 25 16 26 17 27
REMARK SMILES IDX 18 28 19 29 20 30 21 31 22 32 25 33 26 34 27 35
REMARK H PARENT 8 5 30 14 31 16 12 20
ROOT
ATOM      1  C   UNL     1      57.774  38.432  21.937  1.00  0.00     0.174 C 
ENDROOT
BRANCH   1   2
ATOM      2  N   UNL     1      56.417  38.261  22.246  1.00  0.00    -0.343 N 
ATOM      3  C   UNL     1      56.122  37.339  23.261  1.00  0.00     0.235 C 
ATOM      4  O   UNL     1      56.996  36.833  23.856  1.00  0.00    -0.274 OA
ATOM      5  H   UNL     1      55.678  38.785  21.754  1.00  0.00     0.164 HD
BRANCH   3   6
ATOM      6  C   UNL     1      54.643  37.058  23.484  1.00  0.00     0.193 C 
BRANCH   6   7
ATOM      7  C   UNL     1      54.037  38.252  24.177  1.00  0.00     0.029 C 
BRANCH   7   8
ATOM      8  C   UNL     1      53.705  38.034  25.652  1.00  0.00    -0.016 C 
ATOM      9  C   UNL     1      53.967  36.615  26.145  1.00  0.00     0.007 C 
ATOM     10  C   UNL     1      52.283  38.481  25.929  1.00  0.00     0.007 C 
ENDBRANCH   7   8
ENDBRANCH   6   7
BRANCH   6  11
ATOM     11  P   UNL     1      53.765  36.463  22.047  1.00  0.00     0.337 P 
ATOM     12  O   UNL     1      52.787  37.508  21.558  1.00  0.00    -0.260 OA
BRANCH  11  13
ATOM     13  O   UNL     1      52.983  35.291  22.482  1.00  0.00    -0.324 OA
ATOM     14  H   UNL     1      53.480  34.463  22.262  1.00  0.00     0.221 HD
ENDBRANCH  11  13
BRANCH  11  15
ATOM     15  O   UNL     1      54.792  36.003  21.025  1.00  0.00    -0.324 OA
ATOM     16  H   UNL     1      54.343  35.467  20.324  1.00  0.00     0.221 HD
ENDBRANCH  11  15
ENDBRANCH   6  11
ENDBRANCH   3   6
ENDBRANCH   1   2
BRANCH   1  17
ATOM     17  C   UNL     1      58.460  39.637  22.482  1.00  0.00     0.247 C 
ATOM     18  N   UNL     1      59.780  39.347  22.906  1.00  0.00    -0.324 N 
ATOM     19  O   UNL     1      57.934  40.673  22.524  1.00  0.00    -0.272 OA
ATOM     20  H   UNL     1      60.080  38.365  22.981  1.00  0.00     0.170 HD
BRANCH  18  21
ATOM     21  C   UNL     1      60.721  40.405  23.237  1.00  0.00     0.041 A 
ATOM     22  C   UNL     1      61.088  40.831  24.495  1.00  0.00     0.027 A 
ATOM     23  C   UNL     1      60.992  41.215  22.135  1.00  0.00     0.027 A 
ATOM     24  C   UNL     1      61.956  41.926  24.619  1.00  0.00     0.014 A 
ATOM     25  C   UNL     1      61.812  42.316  22.250  1.00  0.00     0.014 A 
ATOM     26  C   UNL     1      62.319  42.639  23.490  1.00  0.00     0.027 A 
BRANCH  26  27
ATOM     27  C   UNL     1      63.115  43.915  23.410  1.00  0.00     0.266 C 
ATOM     28  O   UNL     1      62.727  44.969  23.845  1.00  0.00    -0.284 OA
BRANCH  27  29
ATOM     29  C   UNL     1      64.606  43.635  23.230  1.00  0.00     0.454 C 
ATOM     30  F   UNL     1      65.484  44.566  23.638  1.00  0.00    -0.163 F 
ATOM     31  F   UNL     1      64.698  43.570  21.898  1.00  0.00    -0.163 F 
ATOM     32  F   UNL     1      64.971  42.482  23.754  1.00  0.00    -0.163 F 
ENDBRANCH  27  29
ENDBRANCH  26  27
ENDBRANCH  18  21
ENDBRANCH   1  17
BRANCH   1  33
ATOM     33  C   UNL     1      57.751  38.679  20.352  1.00  0.00     0.015 C 
ATOM     34  C   UNL     1      59.034  39.318  19.831  1.00  0.00     0.010 C 
ATOM     35  C   UNL     1      57.443  37.429  19.526  1.00  0.00     0.010 C 
ENDBRANCH   1  33
TORSDOF 12
ENDMDL
MODEL 9
REMARK VINA RESULT:    -7.439      4.358      6.815
REMARK INTER + INTRA:         -13.470
REMARK INTER:                 -11.755
REMARK INTRA:                  -1.715
REMARK UNBOUND:                -1.248
REMARK SMILES CC(C)C[C@H](C(=O)N[C@H](C(=O)Nc1ccc(C(=O)C(F)(F)F)cc1)C(C)C)P(=O)(O)O
REMARK SMILES IDX 9 1 8 2 6 3 7 4 5 6 4 7 2 8 1 9 3 10 28 11 29 12 30 13 31 15
REMARK SMILES IDX 10 17 12 18 11 19 13 21 14 22 24 23 15 24 23 25 16 26 17 27
REMARK SMILES IDX 18 28 19 29 20 30 21 31 22 32 25 33 26 34 27 35
REMARK H PARENT 8 5 30 14 31 16 12 20
ROOT
ATOM      1  C   UNL     1      53.092  32.679  18.253  1.00  0.00     0.174 C 
ENDROOT
BRANCH   1   2
ATOM      2  N   UNL     1      51.854  33.120  17.763  1.00  0.00    -0.343 N 
ATOM      3  C   UNL     1      50.841  32.153  17.675  1.00  0.00     0.235 C 
ATOM      4  O   UNL     1      51.033  31.074  18.090  1.00  0.00    -0.274 OA
ATOM      5  H   UNL     1      51.698  34.099  17.482  1.00  0.00     0.164 HD
BRANCH   3   6
ATOM      6  C   UNL     1      49.553  32.610  17.008  1.00  0.00     0.193 C 
BRANCH   6   7
ATOM      7  C   UNL     1      48.838  31.392  16.480  1.00  0.00     0.029 C 
BRANCH   7   8
ATOM      8  C   UNL     1      48.789  31.290  14.957  1.00  0.00    -0.016 C 
ATOM      9  C   UNL     1      50.138  31.495  14.276  1.00  0.00     0.007 C 
ATOM     10  C   UNL     1      47.729  32.229  14.414  1.00  0.00     0.007 C 
ENDBRANCH   7   8
ENDBRANCH   6   7
BRANCH   6  11
ATOM     11  P   UNL     1      48.561  33.737  17.976  1.00  0.00     0.337 P 
ATOM     12  O   UNL     1      47.593  34.484  17.086  1.00  0.00    -0.260 OA
BRANCH  11  13
ATOM     13  O   UNL     1      49.488  34.727  18.556  1.00  0.00    -0.324 OA
ATOM     14  H   UNL     1      49.919  35.241  17.828  1.00  0.00     0.221 HD
ENDBRANCH  11  13
BRANCH  11  15
ATOM     15  O   UNL     1      47.928  32.949  19.112  1.00  0.00    -0.324 OA
ATOM     16  H   UNL     1      48.085  31.981  18.970  1.00  0.00     0.221 HD
ENDBRANCH  11  15
ENDBRANCH   6  11
ENDBRANCH   3   6
ENDBRANCH   1   2
BRANCH   1  17
ATOM     17  C   UNL     1      53.633  33.354  19.466  1.00  0.00     0.247 C 
ATOM     18  N   UNL     1      53.603  34.765  19.343  1.00  0.00    -0.324 N 
ATOM     19  O   UNL     1      54.014  32.750  20.383  1.00  0.00    -0.272 OA
ATOM     20  H   UNL     1      53.406  35.186  18.424  1.00  0.00     0.170 HD
BRANCH  18  21
ATOM     21  C   UNL     1      53.842  35.632  20.485  1.00  0.00     0.041 A 
ATOM     22  C   UNL     1      55.062  36.021  20.996  1.00  0.00     0.027 A 
ATOM     23  C   UNL     1      52.695  35.786  21.263  1.00  0.00     0.027 A 
ATOM     24  C   UNL     1      55.097  36.803  22.160  1.00  0.00     0.014 A 
ATOM     25  C   UNL     1      52.724  36.519  22.429  1.00  0.00     0.014 A 
ATOM     26  C   UNL     1      53.923  37.056  22.847  1.00  0.00     0.027 A 
BRANCH  26  27
ATOM     27  C   UNL     1      53.751  37.743  24.177  1.00  0.00     0.266 C 
ATOM     28  O   UNL     1      53.000  38.667  24.356  1.00  0.00    -0.284 OA
BRANCH  27  29
ATOM     29  C   UNL     1      54.187  36.843  25.331  1.00  0.00     0.454 C 
ATOM     30  F   UNL     1      53.599  35.644  25.464  1.00  0.00    -0.163 F 
ATOM     31  F   UNL     1      53.816  37.577  26.386  1.00  0.00    -0.163 F 
ATOM     32  F   UNL     1      55.492  36.656  25.362  1.00  0.00    -0.163 F 
ENDBRANCH  27  29
ENDBRANCH  26  27
ENDBRANCH  18  21
ENDBRANCH   1  17
BRANCH   1  33
ATOM     33  C   UNL     1      54.109  33.101  17.086  1.00  0.00     0.015 C 
ATOM     34  C   UNL     1      55.464  32.411  17.199  1.00  0.00     0.010 C 
ATOM     35  C   UNL     1      53.560  32.897  15.672  1.00  0.00     0.010 C 
ENDBRANCH   1  33
TORSDOF 12
ENDMDL
MODEL 10
REMARK VINA RESULT:    -7.317      4.936      7.841
REMARK INTER + INTRA:         -13.270
REMARK INTER:                 -11.756
REMARK INTRA:                  -1.514
REMARK UNBOUND:                -1.248
REMARK SMILES CC(C)C[C@H](C(=O)N[C@H](C(=O)Nc1ccc(C(=O)C(F)(F)F)cc1)C(C)C)P(=O)(O)O
REMARK SMILES IDX 9 1 8 2 6 3 7 4 5 6 4 7 2 8 1 9 3 10 28 11 29 12 30 13 31 15
REMARK SMILES IDX 10 17 12 18 11 19 13 21 14 22 24 23 15 24 23 25 16 26 17 27
REMARK SMILES IDX 18 28 19 29 20 30 21 31 22 32 25 33 26 34 27 35
REMARK H PARENT 8 5 30 14 31 16 12 20
ROOT
ATOM      1  C   UNL     1      50.685  31.937  17.838  1.00  0.00     0.174 C 
ENDROOT
BRANCH   1   2
ATOM      2  N   UNL     1      49.535  32.094  17.052  1.00  0.00    -0.343 N 
ATOM      3  C   UNL     1      48.379  32.525  17.721  1.00  0.00     0.235 C 
ATOM      4  O   UNL     1      48.441  32.817  18.855  1.00  0.00    -0.274 OA
ATOM      5  H   UNL     1      49.539  31.905  16.039  1.00  0.00     0.164 HD
BRANCH   3   6
ATOM      6  C   UNL     1      47.108  32.552  16.886  1.00  0.00     0.193 C 
BRANCH   6   7
ATOM      7  C   UNL     1      47.195  33.718  15.934  1.00  0.00     0.029 C 
BRANCH   7   8
ATOM      8  C   UNL     1      45.950  34.602  15.892  1.00  0.00    -0.016 C 
ATOM      9  C   UNL     1      45.059  34.480  17.124  1.00  0.00     0.007 C 
ATOM     10  C   UNL     1      45.185  34.349  14.608  1.00  0.00     0.007 C 
ENDBRANCH   7   8
ENDBRANCH   6   7
BRANCH   6  11
ATOM     11  P   UNL     1      46.652  30.986  16.159  1.00  0.00     0.337 P 
ATOM     12  O   UNL     1      47.686  29.932  16.486  1.00  0.00    -0.260 OA
BRANCH  11  13
ATOM     13  O   UNL     1      46.658  31.178  14.697  1.00  0.00    -0.324 OA
ATOM     14  H   UNL     1      47.591  31.155  14.365  1.00  0.00     0.221 HD
ENDBRANCH  11  13
BRANCH  11  15
ATOM     15  O   UNL     1      45.231  30.661  16.594  1.00  0.00    -0.324 OA
ATOM     16  H   UNL     1      45.202  29.746  16.972  1.00  0.00     0.221 HD
ENDBRANCH  11  15
ENDBRANCH   6  11
ENDBRANCH   3   6
ENDBRANCH   1   2
BRANCH   1  17
ATOM     17  C   UNL     1      51.443  33.165  18.206  1.00  0.00     0.247 C 
ATOM     18  N   UNL     1      51.367  33.437  19.594  1.00  0.00    -0.324 N 
ATOM     19  O   UNL     1      52.021  33.787  17.412  1.00  0.00    -0.272 OA
ATOM     20  H   UNL     1      50.689  32.920  20.171  1.00  0.00     0.170 HD
BRANCH  18  21
ATOM     21  C   UNL     1      52.224  34.430  20.222  1.00  0.00     0.041 A 
ATOM     22  C   UNL     1      53.602  34.435  20.264  1.00  0.00     0.027 A 
ATOM     23  C   UNL     1      51.510  35.244  21.100  1.00  0.00     0.027 A 
ATOM     24  C   UNL     1      54.258  35.441  20.989  1.00  0.00     0.014 A 
ATOM     25  C   UNL     1      52.147  36.211  21.846  1.00  0.00     0.014 A 
ATOM     26  C   UNL     1      53.517  36.326  21.752  1.00  0.00     0.027 A 
BRANCH  26  27
ATOM     27  C   UNL     1      54.018  37.378  22.706  1.00  0.00     0.266 C 
ATOM     28  O   UNL     1      54.177  38.532  22.400  1.00  0.00    -0.284 OA
BRANCH  27  29
ATOM     29  C   UNL     1      53.789  36.971  24.160  1.00  0.00     0.454 C 
ATOM     30  F   UNL     1      53.620  35.668  24.440  1.00  0.00    -0.163 F 
ATOM     31  F   UNL     1      52.626  37.578  24.420  1.00  0.00    -0.163 F 
ATOM     32  F   UNL     1      54.720  37.438  24.969  1.00  0.00    -0.163 F 
ENDBRANCH  27  29
ENDBRANCH  26  27
ENDBRANCH  18  21
ENDBRANCH   1  17
BRANCH   1  33
ATOM     33  C   UNL     1      51.679  31.142  16.861  1.00  0.00     0.015 C 
ATOM     34  C   UNL     1      52.177  29.830  17.456  1.00  0.00     0.010 C 
ATOM     35  C   UNL     1      51.108  30.876  15.467  1.00  0.00     0.010 C 
ENDBRANCH   1  33
TORSDOF 12
ENDMDL
MODEL 11
REMARK VINA RESULT:    -7.303      3.290      5.108
REMARK INTER + INTRA:         -13.247
REMARK INTER:                 -12.058
REMARK INTRA:                  -1.188
REMARK UNBOUND:                -1.248
REMARK SMILES CC(C)C[C@H](C(=O)N[C@H](C(=O)Nc1ccc(C(=O)C(F)(F)F)cc1)C(C)C)P(=O)(O)O
REMARK SMILES IDX 9 1 8 2 6 3 7 4 5 6 4 7 2 8 1 9 3 10 28 11 29 12 30 13 31 15
REMARK SMILES IDX 10 17 12 18 11 19 13 21 14 22 24 23 15 24 23 25 16 26 17 27
REMARK SMILES IDX 18 28 19 29 20 30 21 31 22 32 25 33 26 34 27 35
REMARK H PARENT 8 5 30 14 31 16 12 20
ROOT
ATOM      1  C   UNL     1      56.984  37.219  21.358  1.00  0.00     0.174 C 
ENDROOT
BRANCH   1   2
ATOM      2  N   UNL     1      55.604  37.257  21.606  1.00  0.00    -0.343 N 
ATOM      3  C   UNL     1      55.206  37.073  22.939  1.00  0.00     0.235 C 
ATOM      4  O   UNL     1      56.019  36.991  23.780  1.00  0.00    -0.274 OA
ATOM      5  H   UNL     1      54.920  37.413  20.851  1.00  0.00     0.164 HD
BRANCH   3   6
ATOM      6  C   UNL     1      53.706  36.973  23.169  1.00  0.00     0.193 C 
BRANCH   6   7
ATOM      7  C   UNL     1      53.268  38.183  23.954  1.00  0.00     0.029 C 
BRANCH   7   8
ATOM      8  C   UNL     1      52.560  37.869  25.270  1.00  0.00    -0.016 C 
ATOM      9  C   UNL     1      52.350  39.082  26.170  1.00  0.00     0.007 C 
ATOM     10  C   UNL     1      53.286  36.747  25.987  1.00  0.00     0.007 C 
ENDBRANCH   7   8
ENDBRANCH   6   7
BRANCH   6  11
ATOM     11  P   UNL     1      52.744  36.600  21.711  1.00  0.00     0.337 P 
ATOM     12  O   UNL     1      53.548  35.752  20.752  1.00  0.00    -0.260 OA
BRANCH  11  13
ATOM     13  O   UNL     1      52.468  37.887  21.044  1.00  0.00    -0.324 OA
ATOM     14  H   UNL     1      51.834  37.742  20.297  1.00  0.00     0.221 HD
ENDBRANCH  11  13
BRANCH  11  15
ATOM     15  O   UNL     1      51.421  35.999  22.161  1.00  0.00    -0.324 OA
ATOM     16  H   UNL     1      51.395  35.040  21.917  1.00  0.00     0.221 HD
ENDBRANCH  11  15
ENDBRANCH   6  11
ENDBRANCH   3   6
ENDBRANCH   1   2
BRANCH   1  17
ATOM     17  C   UNL     1      57.749  38.487  21.517  1.00  0.00     0.247 C 
ATOM     18  N   UNL     1      58.867  38.326  22.372  1.00  0.00    -0.324 N 
ATOM     19  O   UNL     1      57.431  39.465  20.975  1.00  0.00    -0.272 OA
ATOM     20  H   UNL     1      58.952  37.465  22.931  1.00  0.00     0.170 HD
BRANCH  18  21
ATOM     21  C   UNL     1      59.895  39.348  22.478  1.00  0.00     0.041 A 
ATOM     22  C   UNL     1      60.093  40.227  23.521  1.00  0.00     0.027 A 
ATOM     23  C   UNL     1      60.494  39.605  21.245  1.00  0.00     0.027 A 
ATOM     24  C   UNL     1      61.095  41.203  23.411  1.00  0.00     0.014 A 
ATOM     25  C   UNL     1      61.452  40.586  21.114  1.00  0.00     0.014 A 
ATOM     26  C   UNL     1      61.772  41.352  22.213  1.00  0.00     0.027 A 
BRANCH  26  27
ATOM     27  C   UNL     1      62.771  42.414  21.835  1.00  0.00     0.266 C 
ATOM     28  O   UNL     1      62.464  43.532  21.513  1.00  0.00    -0.284 OA
BRANCH  27  29
ATOM     29  C   UNL     1      64.156  42.108  22.403  1.00  0.00     0.454 C 
ATOM     30  F   UNL     1      64.400  40.868  22.856  1.00  0.00    -0.163 F 
ATOM     31  F   UNL     1      64.187  42.922  23.463  1.00  0.00    -0.163 F 
ATOM     32  F   UNL     1      65.127  42.431  21.571  1.00  0.00    -0.163 F 
ENDBRANCH  27  29
ENDBRANCH  26  27
ENDBRANCH  18  21
ENDBRANCH   1  17
BRANCH   1  33
ATOM     33  C   UNL     1      57.055  36.914  19.784  1.00  0.00     0.015 C 
ATOM     34  C   UNL     1      58.444  37.141  19.197  1.00  0.00     0.010 C 
ATOM     35  C   UNL     1      56.567  35.518  19.393  1.00  0.00     0.010 C 
ENDBRANCH   1  33
TORSDOF 12
ENDMDL
MODEL 12
REMARK VINA RESULT:    -7.260      4.503      6.532
REMARK INTER + INTRA:         -13.177
REMARK INTER:                 -11.742
REMARK INTRA:                  -1.435
REMARK UNBOUND:                -1.248
REMARK SMILES CC(C)C[C@H](C(=O)N[C@H](C(=O)Nc1ccc(C(=O)C(F)(F)F)cc1)C(C)C)P(=O)(O)O
REMARK SMILES IDX 9 1 8 2 6 3 7 4 5 6 4 7 2 8 1 9 3 10 28 11 29 12 30 13 31 15
REMARK SMILES IDX 10 17 12 18 11 19 13 21 14 22 24 23 15 24 23 25 16 26 17 27
REMARK SMILES IDX 18 28 19 29 20 30 21 31 22 32 25 33 26 34 27 35
REMARK H PARENT 8 5 30 14 31 16 12 20
ROOT
ATOM      1  C   UNL     1      53.004  33.545  18.705  1.00  0.00     0.174 C 
ENDROOT
BRANCH   1   2
ATOM      2  N   UNL     1      51.929  33.045  17.956  1.00  0.00    -0.343 N 
ATOM      3  C   UNL     1      51.074  32.149  18.617  1.00  0.00     0.235 C 
ATOM      4  O   UNL     1      51.233  31.933  19.758  1.00  0.00    -0.274 OA
ATOM      5  H   UNL     1      51.774  33.321  16.975  1.00  0.00     0.164 HD
BRANCH   3   6
ATOM      6  C   UNL     1      50.001  31.505  17.752  1.00  0.00     0.193 C 
BRANCH   6   7
ATOM      7  C   UNL     1      49.732  32.416  16.581  1.00  0.00     0.029 C 
BRANCH   7   8
ATOM      8  C   UNL     1      48.399  33.158  16.643  1.00  0.00    -0.016 C 
ATOM      9  C   UNL     1      48.279  34.126  17.815  1.00  0.00     0.007 C 
ATOM     10  C   UNL     1      47.256  32.162  16.607  1.00  0.00     0.007 C 
ENDBRANCH   7   8
ENDBRANCH   6   7
BRANCH   6  11
ATOM     11  P   UNL     1      50.284  29.788  17.354  1.00  0.00     0.337 P 
ATOM     12  O   UNL     1      50.897  29.661  15.977  1.00  0.00    -0.260 OA
BRANCH  11  13
ATOM     13  O   UNL     1      48.962  29.137  17.315  1.00  0.00    -0.324 OA
ATOM     14  H   UNL     1      49.074  28.156  17.387  1.00  0.00     0.221 HD
ENDBRANCH  11  13
BRANCH  11  15
ATOM     15  O   UNL     1      51.092  29.169  18.485  1.00  0.00    -0.324 OA
ATOM     16  H   UNL     1      51.806  29.797  18.762  1.00  0.00     0.221 HD
ENDBRANCH  11  15
ENDBRANCH   6  11
ENDBRANCH   3   6
ENDBRANCH   1   2
BRANCH   1  17
ATOM     17  C   UNL     1      52.746  34.720  19.584  1.00  0.00     0.247 C 
ATOM     18  N   UNL     1      53.540  34.687  20.756  1.00  0.00    -0.324 N 
ATOM     19  O   UNL     1      51.980  35.545  19.292  1.00  0.00    -0.272 OA
ATOM     20  H   UNL     1      54.054  33.826  20.991  1.00  0.00     0.170 HD
BRANCH  18  21
ATOM     21  C   UNL     1      53.645  35.840  21.635  1.00  0.00     0.041 A 
ATOM     22  C   UNL     1      54.748  36.646  21.824  1.00  0.00     0.027 A 
ATOM     23  C   UNL     1      52.603  35.879  22.560  1.00  0.00     0.027 A 
ATOM     24  C   UNL     1      54.687  37.673  22.778  1.00  0.00     0.014 A 
ATOM     25  C   UNL     1      52.551  36.859  23.527  1.00  0.00     0.014 A 
ATOM     26  C   UNL     1      53.579  37.774  23.601  1.00  0.00     0.027 A 
BRANCH  26  27
ATOM     27  C   UNL     1      53.369  38.699  24.771  1.00  0.00     0.266 C 
ATOM     28  O   UNL     1      52.649  39.662  24.737  1.00  0.00    -0.284 OA
BRANCH  27  29
ATOM     29  C   UNL     1      53.712  38.015  26.093  1.00  0.00     0.454 C 
ATOM     30  F   UNL     1      54.535  36.954  26.070  1.00  0.00    -0.163 F 
ATOM     31  F   UNL     1      52.510  37.566  26.472  1.00  0.00    -0.163 F 
ATOM     32  F   UNL     1      54.171  38.860  26.996  1.00  0.00    -0.163 F 
ENDBRANCH  27  29
ENDBRANCH  26  27
ENDBRANCH  18  21
ENDBRANCH   1  17
BRANCH   1  33
ATOM     33  C   UNL     1      53.992  34.113  17.575  1.00  0.00     0.015 C 
ATOM     34  C   UNL     1      55.461  33.843  17.878  1.00  0.00     0.010 C 
ATOM     35  C   UNL     1      53.674  33.623  16.160  1.00  0.00     0.010 C 
ENDBRANCH   1  33
TORSDOF 12
ENDMDL
MODEL 13
REMARK VINA RESULT:    -7.237      4.919      8.998
REMARK INTER + INTRA:         -13.138
REMARK INTER:                 -11.649
REMARK INTRA:                  -1.490
REMARK UNBOUND:                -1.248
REMARK SMILES CC(C)C[C@H](C(=O)N[C@H](C(=O)Nc1ccc(C(=O)C(F)(F)F)cc1)C(C)C)P(=O)(O)O
REMARK SMILES IDX 9 1 8 2 6 3 7 4 5 6 4 7 2 8 1 9 3 10 28 11 29 12 30 13 31 15
REMARK SMILES IDX 10 17 12 18 11 19 13 21 14 22 24 23 15 24 23 25 16 26 17 27
REMARK SMILES IDX 18 28 19 29 20 30 21 31 22 32 25 33 26 34 27 35
REMARK H PARENT 8 5 30 14 31 16 12 20
ROOT
ATOM      1  C   UNL     1      56.661  36.920  21.495  1.00  0.00     0.174 C 
ENDROOT
BRANCH   1   2
ATOM      2  N   UNL     1      57.263  38.006  20.844  1.00  0.00    -0.343 N 
ATOM      3  C   UNL     1      57.860  37.734  19.603  1.00  0.00     0.235 C 
ATOM      4  O   UNL     1      57.755  36.665  19.132  1.00  0.00    -0.274 OA
ATOM      5  H   UNL     1      57.266  38.952  21.253  1.00  0.00     0.164 HD
BRANCH   3   6
ATOM      6  C   UNL     1      58.632  38.886  18.979  1.00  0.00     0.193 C 
BRANCH   6   7
ATOM      7  C   UNL     1      59.795  39.217  19.880  1.00  0.00     0.029 C 
BRANCH   7   8
ATOM      8  C   UNL     1      59.729  40.600  20.526  1.00  0.00    -0.016 C 
ATOM      9  C   UNL     1      59.628  40.573  22.047  1.00  0.00     0.007 C 
ATOM     10  C   UNL     1      58.610  41.407  19.895  1.00  0.00     0.007 C 
ENDBRANCH   7   8
ENDBRANCH   6   7
BRANCH   6  11
ATOM     11  P   UNL     1      59.023  38.682  17.248  1.00  0.00     0.337 P 
ATOM     12  O   UNL     1      60.462  38.248  17.081  1.00  0.00    -0.260 OA
BRANCH  11  13
ATOM     13  O   UNL     1      58.882  40.009  16.621  1.00  0.00    -0.324 OA
ATOM     14  H   UNL     1      58.627  39.899  15.670  1.00  0.00     0.221 HD
ENDBRANCH  11  13
BRANCH  11  15
ATOM     15  O   UNL     1      57.987  37.749  16.639  1.00  0.00    -0.324 OA
ATOM     16  H   UNL     1      58.344  36.826  16.622  1.00  0.00     0.221 HD
ENDBRANCH  11  15
ENDBRANCH   6  11
ENDBRANCH   3   6
ENDBRANCH   1   2
BRANCH   1  17
ATOM     17  C   UNL     1      55.225  36.650  21.205  1.00  0.00     0.247 C 
ATOM     18  N   UNL     1      55.054  35.474  20.436  1.00  0.00    -0.324 N 
ATOM     19  O   UNL     1      54.381  37.349  21.595  1.00  0.00    -0.272 OA
ATOM     20  H   UNL     1      55.877  35.031  20.003  1.00  0.00     0.170 HD
BRANCH  18  21
ATOM     21  C   UNL     1      53.742  34.876  20.244  1.00  0.00     0.041 A 
ATOM     22  C   UNL     1      52.659  34.953  21.093  1.00  0.00     0.027 A 
ATOM     23  C   UNL     1      53.762  33.901  19.247  1.00  0.00     0.027 A 
ATOM     24  C   UNL     1      51.492  34.241  20.777  1.00  0.00     0.014 A 
ATOM     25  C   UNL     1      52.634  33.168  18.952  1.00  0.00     0.014 A 
ATOM     26  C   UNL     1      51.493  33.375  19.698  1.00  0.00     0.027 A 
BRANCH  26  27
ATOM     27  C   UNL     1      50.411  32.419  19.270  1.00  0.00     0.266 C 
ATOM     28  O   UNL     1      50.298  31.303  19.708  1.00  0.00    -0.284 OA
BRANCH  27  29
ATOM     29  C   UNL     1      49.215  33.157  18.672  1.00  0.00     0.454 C 
ATOM     30  F   UNL     1      49.395  34.413  18.233  1.00  0.00    -0.163 F 
ATOM     31  F   UNL     1      48.399  33.228  19.729  1.00  0.00    -0.163 F 
ATOM     32  F   UNL     1      48.629  32.475  17.708  1.00  0.00    -0.163 F 
ENDBRANCH  27  29
ENDBRANCH  26  27
ENDBRANCH  18  21
ENDBRANCH   1  17
BRANCH   1  33
ATOM     33  C   UNL     1      56.670  37.377  23.033  1.00  0.00     0.015 C 
ATOM     34  C   UNL     1      57.795  36.738  23.838  1.00  0.00     0.010 C 
ATOM     35  C   UNL     1      56.707  38.893  23.237  1.00  0.00     0.010 C 
ENDBRANCH   1  33
TORSDOF 12
ENDMDL
MODEL 14
REMARK VINA RESULT:    -7.223      2.940      4.346
REMARK INTER + INTRA:         -13.116
REMARK INTER:                 -11.383
REMARK INTRA:                  -1.732
REMARK UNBOUND:                -1.248
REMARK SMILES CC(C)C[C@H](C(=O)N[C@H](C(=O)Nc1ccc(C(=O)C(F)(F)F)cc1)C(C)C)P(=O)(O)O
REMARK SMILES IDX 9 1 8 2 6 3 7 4 5 6 4 7 2 8 1 9 3 10 28 11 29 12 30 13 31 15
REMARK SMILES IDX 10 17 12 18 11 19 13 21 14 22 24 23 15 24 23 25 16 26 17 27
REMARK SMILES IDX 18 28 19 29 20 30 21 31 22 32 25 33 26 34 27 35
REMARK H PARENT 8 5 30 14 31 16 12 20
ROOT
ATOM      1  C   UNL     1      55.554  33.886  18.385  1.00  0.00     0.174 C 
ENDROOT
BRANCH   1   2
ATOM      2  N   UNL     1      54.280  34.329  18.770  1.00  0.00    -0.343 N 
ATOM      3  C   UNL     1      53.577  33.501  19.660  1.00  0.00     0.235 C 
ATOM      4  O   UNL     1      54.102  32.552  20.104  1.00  0.00    -0.274 OA
ATOM      5  H   UNL     1      53.883  35.213  18.419  1.00  0.00     0.164 HD
BRANCH   3   6
ATOM      6  C   UNL     1      52.145  33.921  19.953  1.00  0.00     0.193 C 
BRANCH   6   7
ATOM      7  C   UNL     1      51.353  32.684  20.295  1.00  0.00     0.029 C 
BRANCH   7   8
ATOM      8  C   UNL     1      50.517  32.123  19.146  1.00  0.00    -0.016 C 
ATOM      9  C   UNL     1      51.025  30.794  18.598  1.00  0.00     0.007 C 
ATOM     10  C   UNL     1      50.373  33.170  18.059  1.00  0.00     0.007 C 
ENDBRANCH   7   8
ENDBRANCH   6   7
BRANCH   6  11
ATOM     11  P   UNL     1      51.978  35.290  21.087  1.00  0.00     0.337 P 
ATOM     12  O   UNL     1      52.468  36.569  20.445  1.00  0.00    -0.260 OA
BRANCH  11  13
ATOM     13  O   UNL     1      52.860  35.002  22.234  1.00  0.00    -0.324 OA
ATOM     14  H   UNL     1      53.599  34.412  21.941  1.00  0.00     0.221 HD
ENDBRANCH  11  13
BRANCH  11  15
ATOM     15  O   UNL     1      50.540  35.319  21.582  1.00  0.00    -0.324 OA
ATOM     16  H   UNL     1      50.171  36.231  21.471  1.00  0.00     0.221 HD
ENDBRANCH  11  15
ENDBRANCH   6  11
ENDBRANCH   3   6
ENDBRANCH   1   2
BRANCH   1  17
ATOM     17  C   UNL     1      56.688  34.841  18.526  1.00  0.00     0.247 C 
ATOM     18  N   UNL     1      56.548  35.663  19.671  1.00  0.00    -0.324 N 
ATOM     19  O   UNL     1      57.567  34.864  17.764  1.00  0.00    -0.272 OA
ATOM     20  H   UNL     1      55.649  35.674  20.175  1.00  0.00     0.170 HD
BRANCH  18  21
ATOM     21  C   UNL     1      57.642  36.490  20.151  1.00  0.00     0.041 A 
ATOM     22  C   UNL     1      58.709  36.093  20.929  1.00  0.00     0.027 A 
ATOM     23  C   UNL     1      57.350  37.849  20.034  1.00  0.00     0.027 A 
ATOM     24  C   UNL     1      59.632  37.056  21.364  1.00  0.00     0.014 A 
ATOM     25  C   UNL     1      58.230  38.804  20.491  1.00  0.00     0.014 A 
ATOM     26  C   UNL     1      59.387  38.395  21.119  1.00  0.00     0.027 A 
BRANCH  26  27
ATOM     27  C   UNL     1      60.162  39.589  21.613  1.00  0.00     0.266 C 
ATOM     28  O   UNL     1      60.861  40.267  20.906  1.00  0.00    -0.284 OA
BRANCH  27  29
ATOM     29  C   UNL     1      59.568  40.147  22.905  1.00  0.00     0.454 C 
ATOM     30  F   UNL     1      58.476  40.924  22.823  1.00  0.00    -0.163 F 
ATOM     31  F   UNL     1      60.567  40.924  23.336  1.00  0.00    -0.163 F 
ATOM     32  F   UNL     1      59.325  39.206  23.797  1.00  0.00    -0.163 F 
ENDBRANCH  27  29
ENDBRANCH  26  27
ENDBRANCH  18  21
ENDBRANCH   1  17
BRANCH   1  33
ATOM     33  C   UNL     1      55.400  33.694  16.799  1.00  0.00     0.015 C 
ATOM     34  C   UNL     1      55.631  32.256  16.349  1.00  0.00     0.010 C 
ATOM     35  C   UNL     1      54.068  34.189  16.234  1.00  0.00     0.010 C 
ENDBRANCH   1  33
TORSDOF 12
ENDMDL
MODEL 15
REMARK VINA RESULT:    -7.200      5.029      8.692
REMARK INTER + INTRA:         -13.078
REMARK INTER:                 -12.467
REMARK INTRA:                  -0.611
REMARK UNBOUND:                -1.248
REMARK SMILES CC(C)C[C@H](C(=O)N[C@H](C(=O)Nc1ccc(C(=O)C(F)(F)F)cc1)C(C)C)P(=O)(O)O
REMARK SMILES IDX 9 1 8 2 6 3 7 4 5 6 4 7 2 8 1 9 3 10 28 11 29 12 30 13 31 15
REMARK SMILES IDX 10 17 12 18 11 19 13 21 14 22 24 23 15 24 23 25 16 26 17 27
REMARK SMILES IDX 18 28 19 29 20 30 21 31 22 32 25 33 26 34 27 35
REMARK H PARENT 8 5 30 14 31 16 12 20
ROOT
ATOM      1  C   UNL     1      56.055  36.806  21.073  1.00  0.00     0.174 C 
ENDROOT
BRANCH   1   2
ATOM      2  N   UNL     1      55.724  36.848  22.435  1.00  0.00    -0.343 N 
ATOM      3  C   UNL     1      54.703  37.740  22.800  1.00  0.00     0.235 C 
ATOM      4  O   UNL     1      54.122  38.326  21.967  1.00  0.00    -0.274 OA
ATOM      5  H   UNL     1      56.203  36.256  23.130  1.00  0.00     0.164 HD
BRANCH   3   6
ATOM      6  C   UNL     1      54.456  37.879  24.294  1.00  0.00     0.193 C 
BRANCH   6   7
ATOM      7  C   UNL     1      53.140  38.589  24.489  1.00  0.00     0.029 C 
BRANCH   7   8
ATOM      8  C   UNL     1      52.544  38.454  25.889  1.00  0.00    -0.016 C 
ATOM      9  C   UNL     1      51.408  37.441  25.986  1.00  0.00     0.007 C 
ATOM     10  C   UNL     1      52.134  39.820  26.405  1.00  0.00     0.007 C 
ENDBRANCH   7   8
ENDBRANCH   6   7
BRANCH   6  11
ATOM     11  P   UNL     1      54.679  36.380  25.238  1.00  0.00     0.337 P 
ATOM     12  O   UNL     1      54.463  36.648  26.711  1.00  0.00    -0.260 OA
BRANCH  11  13
ATOM     13  O   UNL     1      56.085  35.971  25.061  1.00  0.00    -0.324 OA
ATOM     14  H   UNL     1      56.516  35.878  25.948  1.00  0.00     0.221 HD
ENDBRANCH  11  13
BRANCH  11  15
ATOM     15  O   UNL     1      53.787  35.307  24.633  1.00  0.00    -0.324 OA
ATOM     16  H   UNL     1      54.083  34.416  24.948  1.00  0.00     0.221 HD
ENDBRANCH  11  15
ENDBRANCH   6  11
ENDBRANCH   3   6
ENDBRANCH   1   2
BRANCH   1  17
ATOM     17  C   UNL     1      55.590  35.630  20.286  1.00  0.00     0.247 C 
ATOM     18  N   UNL     1      54.246  35.296  20.580  1.00  0.00    -0.324 N 
ATOM     19  O   UNL     1      56.284  35.090  19.525  1.00  0.00    -0.272 OA
ATOM     20  H   UNL     1      53.785  35.731  21.392  1.00  0.00     0.170 HD
BRANCH  18  21
ATOM     21  C   UNL     1      53.501  34.352  19.762  1.00  0.00     0.041 A 
ATOM     22  C   UNL     1      53.383  34.351  18.389  1.00  0.00     0.027 A 
ATOM     23  C   UNL     1      52.606  33.603  20.526  1.00  0.00     0.027 A 
ATOM     24  C   UNL     1      52.552  33.401  17.776  1.00  0.00     0.014 A 
ATOM     25  C   UNL     1      51.757  32.695  19.934  1.00  0.00     0.014 A 
ATOM     26  C   UNL     1      51.768  32.574  18.561  1.00  0.00     0.027 A 
BRANCH  26  27
ATOM     27  C   UNL     1      50.713  31.594  18.116  1.00  0.00     0.266 C 
ATOM     28  O   UNL     1      50.728  30.425  18.404  1.00  0.00    -0.284 OA
BRANCH  27  29
ATOM     29  C   UNL     1      49.410  32.301  17.751  1.00  0.00     0.454 C 
ATOM     30  F   UNL     1      49.480  33.463  17.081  1.00  0.00    -0.163 F 
ATOM     31  F   UNL     1      48.918  32.580  18.963  1.00  0.00    -0.163 F 
ATOM     32  F   UNL     1      48.571  31.515  17.106  1.00  0.00    -0.163 F 
ENDBRANCH  27  29
ENDBRANCH  26  27
ENDBRANCH  18  21
ENDBRANCH   1  17
BRANCH   1  33
ATOM     33  C   UNL     1      57.652  36.652  21.099  1.00  0.00     0.015 C 
ATOM     34  C   UNL     1      58.375  37.834  20.465  1.00  0.00     0.010 C 
ATOM     35  C   UNL     1      58.235  36.396  22.490  1.00  0.00     0.010 C 
ENDBRANCH   1  33
TORSDOF 12
ENDMDL
MODEL 16
REMARK VINA RESULT:    -7.182      3.018      4.454
REMARK INTER + INTRA:         -13.048
REMARK INTER:                 -11.389
REMARK INTRA:                  -1.659
REMARK UNBOUND:                -1.248
REMARK SMILES CC(C)C[C@H](C(=O)N[C@H](C(=O)Nc1ccc(C(=O)C(F)(F)F)cc1)C(C)C)P(=O)(O)O
REMARK SMILES IDX 9 1 8 2 6 3 7 4 5 6 4 7 2 8 1 9 3 10 28 11 29 12 30 13 31 15
REMARK SMILES IDX 10 17 12 18 11 19 13 21 14 22 24 23 15 24 23 25 16 26 17 27
REMARK SMILES IDX 18 28 19 29 20 30 21 31 22 32 25 33 26 34 27 35
REMARK H PARENT 8 5 30 14 31 16 12 20
ROOT
ATOM      1  C   UNL     1      56.089  33.985  18.248  1.00  0.00     0.174 C 
ENDROOT
BRANCH   1   2
ATOM      2  N   UNL     1      54.756  34.315  18.533  1.00  0.00    -0.343 N 
ATOM      3  C   UNL     1      54.026  33.370  19.272  1.00  0.00     0.235 C 
ATOM      4  O   UNL     1      54.568  32.418  19.688  1.00  0.00    -0.274 OA
ATOM      5  H   UNL     1      54.336  35.201  18.218  1.00  0.00     0.164 HD
BRANCH   3   6
ATOM      6  C   UNL     1      52.547  33.676  19.448  1.00  0.00     0.193 C 
BRANCH   6   7
ATOM      7  C   UNL     1      51.849  32.403  19.856  1.00  0.00     0.029 C 
BRANCH   7   8
ATOM      8  C   UNL     1      50.782  31.917  18.877  1.00  0.00    -0.016 C 
ATOM      9  C   UNL     1      50.810  30.415  18.620  1.00  0.00     0.007 C 
ATOM     10  C   UNL     1      50.865  32.717  17.591  1.00  0.00     0.007 C 
ENDBRANCH   7   8
ENDBRANCH   6   7
BRANCH   6  11
ATOM     11  P   UNL     1      52.187  35.114  20.443  1.00  0.00     0.337 P 
ATOM     12  O   UNL     1      53.470  35.762  20.914  1.00  0.00    -0.260 OA
BRANCH  11  13
ATOM     13  O   UNL     1      51.466  34.635  21.637  1.00  0.00    -0.324 OA
ATOM     14  H   UNL     1      51.689  35.212  22.411  1.00  0.00     0.221 HD
ENDBRANCH  11  13
BRANCH  11  15
ATOM     15  O   UNL     1      51.256  36.016  19.648  1.00  0.00    -0.324 OA
ATOM     16  H   UNL     1      50.688  36.535  20.271  1.00  0.00     0.221 HD
ENDBRANCH  11  15
ENDBRANCH   6  11
ENDBRANCH   3   6
ENDBRANCH   1   2
BRANCH   1  17
ATOM     17  C   UNL     1      57.153  34.858  18.817  1.00  0.00     0.247 C 
ATOM     18  N   UNL     1      56.968  36.216  18.461  1.00  0.00    -0.324 N 
ATOM     19  O   UNL     1      58.008  34.428  19.478  1.00  0.00    -0.272 OA
ATOM     20  H   UNL     1      56.280  36.456  17.734  1.00  0.00     0.170 HD
BRANCH  18  21
ATOM     21  C   UNL     1      57.728  37.279  19.099  1.00  0.00     0.041 A 
ATOM     22  C   UNL     1      57.551  37.784  20.370  1.00  0.00     0.027 A 
ATOM     23  C   UNL     1      58.472  38.007  18.172  1.00  0.00     0.027 A 
ATOM     24  C   UNL     1      58.334  38.871  20.787  1.00  0.00     0.014 A 
ATOM     25  C   UNL     1      59.215  39.100  18.561  1.00  0.00     0.014 A 
ATOM     26  C   UNL     1      59.169  39.498  19.880  1.00  0.00     0.027 A 
BRANCH  26  27
ATOM     27  C   UNL     1      59.979  40.753  20.073  1.00  0.00     0.266 C 
ATOM     28  O   UNL     1      61.127  40.863  19.729  1.00  0.00    -0.284 OA
BRANCH  27  29
ATOM     29  C   UNL     1      59.083  41.979  20.237  1.00  0.00     0.454 C 
ATOM     30  F   UNL     1      59.646  43.196  20.168  1.00  0.00    -0.163 F 
ATOM     31  F   UNL     1      58.653  41.820  21.494  1.00  0.00    -0.163 F 
ATOM     32  F   UNL     1      58.052  41.966  19.415  1.00  0.00    -0.163 F 
ENDBRANCH  27  29
ENDBRANCH  26  27
ENDBRANCH  18  21
ENDBRANCH   1  17
BRANCH   1  33
ATOM     33  C   UNL     1      56.187  34.231  16.665  1.00  0.00     0.015 C 
ATOM     34  C   UNL     1      57.305  33.432  16.006  1.00  0.00     0.010 C 
ATOM     35  C   UNL     1      54.880  33.981  15.910  1.00  0.00     0.010 C 
ENDBRANCH   1  33
TORSDOF 12
ENDMDL
MODEL 17
REMARK VINA RESULT:    -7.173      4.644      7.560
REMARK INTER + INTRA:         -13.033
REMARK INTER:                 -11.505
REMARK INTRA:                  -1.528
REMARK UNBOUND:                -1.248
REMARK SMILES CC(C)C[C@H](C(=O)N[C@H](C(=O)Nc1ccc(C(=O)C(F)(F)F)cc1)C(C)C)P(=O)(O)O
REMARK SMILES IDX 9 1 8 2 6 3 7 4 5 6 4 7 2 8 1 9 3 10 28 11 29 12 30 13 31 15
REMARK SMILES IDX 10 17 12 18 11 19 13 21 14 22 24 23 15 24 23 25 16 26 17 27
REMARK SMILES IDX 18 28 19 29 20 30 21 31 22 32 25 33 26 34 27 35
REMARK H PARENT 8 5 30 14 31 16 12 20
ROOT
ATOM      1  C   UNL     1      50.079  32.342  18.053  1.00  0.00     0.174 C 
ENDROOT
BRANCH   1   2
ATOM      2  N   UNL     1      49.976  30.944  18.019  1.00  0.00    -0.343 N 
ATOM      3  C   UNL     1      51.165  30.239  17.771  1.00  0.00     0.235 C 
ATOM      4  O   UNL     1      52.179  30.822  17.699  1.00  0.00    -0.274 OA
ATOM      5  H   UNL     1      49.078  30.461  18.167  1.00  0.00     0.164 HD
BRANCH   3   6
ATOM      6  C   UNL     1      51.012  28.736  17.592  1.00  0.00     0.193 C 
BRANCH   6   7
ATOM      7  C   UNL     1      51.036  28.095  18.957  1.00  0.00     0.029 C 
BRANCH   7   8
ATOM      8  C   UNL     1      51.902  26.841  19.058  1.00  0.00    -0.016 C 
ATOM      9  C   UNL     1      51.924  26.210  20.445  1.00  0.00     0.007 C 
ATOM     10  C   UNL     1      53.298  27.139  18.545  1.00  0.00     0.007 C 
ENDBRANCH   7   8
ENDBRANCH   6   7
BRANCH   6  11
ATOM     11  P   UNL     1      49.672  28.237  16.522  1.00  0.00     0.337 P 
ATOM     12  O   UNL     1      49.609  29.134  15.305  1.00  0.00    -0.260 OA
BRANCH  11  13
ATOM     13  O   UNL     1      48.425  28.431  17.284  1.00  0.00    -0.324 OA
ATOM     14  H   UNL     1      47.836  29.063  16.799  1.00  0.00     0.221 HD
ENDBRANCH  11  13
BRANCH  11  15
ATOM     15  O   UNL     1      49.832  26.753  16.230  1.00  0.00    -0.324 OA
ATOM     16  H   UNL     1      50.206  26.634  15.321  1.00  0.00     0.221 HD
ENDBRANCH  11  15
ENDBRANCH   6  11
ENDBRANCH   3   6
ENDBRANCH   1   2
BRANCH   1  17
ATOM     17  C   UNL     1      50.517  32.970  19.331  1.00  0.00     0.247 C 
ATOM     18  N   UNL     1      51.742  33.665  19.186  1.00  0.00    -0.324 N 
ATOM     19  O   UNL     1      49.886  32.879  20.304  1.00  0.00    -0.272 OA
ATOM     20  H   UNL     1      52.296  33.535  18.328  1.00  0.00     0.170 HD
BRANCH  18  21
ATOM     21  C   UNL     1      52.235  34.559  20.221  1.00  0.00     0.041 A 
ATOM     22  C   UNL     1      51.491  35.398  21.023  1.00  0.00     0.027 A 
ATOM     23  C   UNL     1      53.612  34.757  20.117  1.00  0.00     0.027 A 
ATOM     24  C   UNL     1      52.153  36.251  21.919  1.00  0.00     0.014 A 
ATOM     25  C   UNL     1      54.269  35.621  20.964  1.00  0.00     0.014 A 
ATOM     26  C   UNL     1      53.534  36.333  21.887  1.00  0.00     0.027 A 
BRANCH  26  27
ATOM     27  C   UNL     1      54.428  37.274  22.651  1.00  0.00     0.266 C 
ATOM     28  O   UNL     1      54.710  38.380  22.268  1.00  0.00    -0.284 OA
BRANCH  27  29
ATOM     29  C   UNL     1      54.488  36.912  24.133  1.00  0.00     0.454 C 
ATOM     30  F   UNL     1      53.759  35.870  24.566  1.00  0.00    -0.163 F 
ATOM     31  F   UNL     1      53.966  38.010  24.690  1.00  0.00    -0.163 F 
ATOM     32  F   UNL     1      55.723  36.745  24.564  1.00  0.00    -0.163 F 
ENDBRANCH  27  29
ENDBRANCH  26  27
ENDBRANCH  18  21
ENDBRANCH   1  17
BRANCH   1  33
ATOM     33  C   UNL     1      48.555  32.816  17.887  1.00  0.00     0.015 C 
ATOM     34  C   UNL     1      48.416  34.325  17.723  1.00  0.00     0.010 C 
ATOM     35  C   UNL     1      47.801  32.117  16.754  1.00  0.00     0.010 C 
ENDBRANCH   1  33
TORSDOF 12
ENDMDL
MODEL 18
REMARK VINA RESULT:    -7.089      6.171     10.340
REMARK INTER + INTRA:         -12.896
REMARK INTER:                 -11.155
REMARK INTRA:                  -1.740
REMARK UNBOUND:                -1.248
REMARK SMILES CC(C)C[C@H](C(=O)N[C@H](C(=O)Nc1ccc(C(=O)C(F)(F)F)cc1)C(C)C)P(=O)(O)O
REMARK SMILES IDX 9 1 8 2 6 3 7 4 5 6 4 7 2 8 1 9 3 10 28 11 29 12 30 13 31 15
REMARK SMILES IDX 10 17 12 18 11 19 13 21 14 22 24 23 15 24 23 25 16 26 17 27
REMARK SMILES IDX 18 28 19 29 20 30 21 31 22 32 25 33 26 34 27 35
REMARK H PARENT 8 5 30 14 31 16 12 20
ROOT
ATOM      1  C   UNL     1      54.685  34.377  18.954  1.00  0.00     0.174 C 
ENDROOT
BRANCH   1   2
ATOM      2  N   UNL     1      55.101  35.094  20.084  1.00  0.00    -0.343 N 
ATOM      3  C   UNL     1      54.097  35.769  20.797  1.00  0.00     0.235 C 
ATOM      4  O   UNL     1      52.976  35.635  20.484  1.00  0.00    -0.274 OA
ATOM      5  H   UNL     1      56.089  35.123  20.376  1.00  0.00     0.164 HD
BRANCH   3   6
ATOM      6  C   UNL     1      54.583  36.658  21.932  1.00  0.00     0.193 C 
BRANCH   6   7
ATOM      7  C   UNL     1      55.839  37.357  21.478  1.00  0.00     0.029 C 
BRANCH   7   8
ATOM      8  C   UNL     1      56.989  37.320  22.482  1.00  0.00    -0.016 C 
ATOM      9  C   UNL     1      57.649  38.673  22.723  1.00  0.00     0.007 C 
ATOM     10  C   UNL     1      57.994  36.261  22.072  1.00  0.00     0.007 C 
ENDBRANCH   7   8
ENDBRANCH   6   7
BRANCH   6  11
ATOM     11  P   UNL     1      53.330  37.702  22.659  1.00  0.00     0.337 P 
ATOM     12  O   UNL     1      53.929  38.563  23.748  1.00  0.00    -0.260 OA
BRANCH  11  13
ATOM     13  O   UNL     1      52.344  36.805  23.292  1.00  0.00    -0.324 OA
ATOM     14  H   UNL     1      51.551  37.330  23.568  1.00  0.00     0.221 HD
ENDBRANCH  11  13
BRANCH  11  15
ATOM     15  O   UNL     1      52.639  38.460  21.536  1.00  0.00    -0.324 OA
ATOM     16  H   UNL     1      51.973  39.084  21.920  1.00  0.00     0.221 HD
ENDBRANCH  11  15
ENDBRANCH   6  11
ENDBRANCH   3   6
ENDBRANCH   1   2
BRANCH   1  17
ATOM     17  C   UNL     1      54.089  33.029  19.172  1.00  0.00     0.247 C 
ATOM     18  N   UNL     1      52.766  32.949  18.673  1.00  0.00    -0.324 N 
ATOM     19  O   UNL     1      54.684  32.174  19.688  1.00  0.00    -0.272 OA
ATOM     20  H   UNL     1      52.281  33.813  18.393  1.00  0.00     0.170 HD
BRANCH  18  21
ATOM     21  C   UNL     1      52.078  31.675  18.547  1.00  0.00     0.041 A 
ATOM     22  C   UNL     1      50.953  31.264  19.229  1.00  0.00     0.027 A 
ATOM     23  C   UNL     1      52.864  30.728  17.893  1.00  0.00     0.027 A 
ATOM     24  C   UNL     1      50.473  29.960  19.032  1.00  0.00     0.014 A 
ATOM     25  C   UNL     1      52.423  29.434  17.726  1.00  0.00     0.014 A 
ATOM     26  C   UNL     1      51.208  29.072  18.266  1.00  0.00     0.027 A 
BRANCH  26  27
ATOM     27  C   UNL     1      50.955  27.604  18.044  1.00  0.00     0.266 C 
ATOM     28  O   UNL     1      50.869  27.101  16.953  1.00  0.00    -0.284 OA
BRANCH  27  29
ATOM     29  C   UNL     1      51.349  26.777  19.266  1.00  0.00     0.454 C 
ATOM     30  F   UNL     1      52.622  26.828  19.688  1.00  0.00    -0.163 F 
ATOM     31  F   UNL     1      51.137  25.535  18.818  1.00  0.00    -0.163 F 
ATOM     32  F   UNL     1      50.571  27.009  20.305  1.00  0.00    -0.163 F 
ENDBRANCH  27  29
ENDBRANCH  26  27
ENDBRANCH  18  21
ENDBRANCH   1  17
BRANCH   1  33
ATOM     33  C   UNL     1      56.066  34.074  18.195  1.00  0.00     0.015 C 
ATOM     34  C   UNL     1      55.907  33.989  16.681  1.00  0.00     0.010 C 
ATOM     35  C   UNL     1      57.192  35.056  18.525  1.00  0.00     0.010 C 
ENDBRANCH   1  33
TORSDOF 12
ENDMDL
MODEL 19
REMARK VINA RESULT:    -6.967      5.290     10.460
REMARK INTER + INTRA:         -12.696
REMARK INTER:                 -11.351
REMARK INTRA:                  -1.345
REMARK UNBOUND:                -1.248
REMARK SMILES CC(C)C[C@H](C(=O)N[C@H](C(=O)Nc1ccc(C(=O)C(F)(F)F)cc1)C(C)C)P(=O)(O)O
REMARK SMILES IDX 9 1 8 2 6 3 7 4 5 6 4 7 2 8 1 9 3 10 28 11 29 12 30 13 31 15
REMARK SMILES IDX 10 17 12 18 11 19 13 21 14 22 24 23 15 24 23 25 16 26 17 27
REMARK SMILES IDX 18 28 19 29 20 30 21 31 22 32 25 33 26 34 27 35
REMARK H PARENT 8 5 30 14 31 16 12 20
ROOT
ATOM      1  C   UNL     1      60.026  40.140  21.132  1.00  0.00     0.174 C 
ENDROOT
BRANCH   1   2
ATOM      2  N   UNL     1      61.126  40.701  21.796  1.00  0.00    -0.343 N 
ATOM      3  C   UNL     1      61.417  42.041  21.496  1.00  0.00     0.235 C 
ATOM      4  O   UNL     1      60.697  42.646  20.797  1.00  0.00    -0.274 OA
ATOM      5  H   UNL     1      61.690  40.159  22.468  1.00  0.00     0.164 HD
BRANCH   3   6
ATOM      6  C   UNL     1      62.695  42.589  22.111  1.00  0.00     0.193 C 
BRANCH   6   7
ATOM      7  C   UNL     1      63.323  43.539  21.123  1.00  0.00     0.029 C 
BRANCH   7   8
ATOM      8  C   UNL     1      64.645  43.058  20.527  1.00  0.00    -0.016 C 
ATOM      9  C   UNL     1      65.863  43.846  20.997  1.00  0.00     0.007 C 
ATOM     10  C   UNL     1      64.541  43.019  19.015  1.00  0.00     0.007 C 
ENDBRANCH   7   8
ENDBRANCH   6   7
BRANCH   6  11
ATOM     11  P   UNL     1      62.525  43.202  23.780  1.00  0.00     0.337 P 
ATOM     12  O   UNL     1      63.847  43.118  24.509  1.00  0.00    -0.260 OA
BRANCH  11  13
ATOM     13  O   UNL     1      61.579  42.304  24.468  1.00  0.00    -0.324 OA
ATOM     14  H   UNL     1      61.181  41.678  23.812  1.00  0.00     0.221 HD
ENDBRANCH  11  13
BRANCH  11  15
ATOM     15  O   UNL     1      61.906  44.590  23.710  1.00  0.00    -0.324 OA
ATOM     16  H   UNL     1      61.950  45.016  24.603  1.00  0.00     0.221 HD
ENDBRANCH  11  15
ENDBRANCH   6  11
ENDBRANCH   3   6
ENDBRANCH   1   2
BRANCH   1  17
ATOM     17  C   UNL     1      58.790  39.898  21.928  1.00  0.00     0.247 C 
ATOM     18  N   UNL     1      58.432  38.528  21.944  1.00  0.00    -0.324 N 
ATOM     19  O   UNL     1      58.227  40.764  22.461  1.00  0.00    -0.272 OA
ATOM     20  H   UNL     1      58.901  37.878  21.298  1.00  0.00     0.170 HD
BRANCH  18  21
ATOM     21  C   UNL     1      57.417  38.019  22.852  1.00  0.00     0.041 A 
ATOM     22  C   UNL     1      57.595  37.123  23.884  1.00  0.00     0.027 A 
ATOM     23  C   UNL     1      56.130  38.264  22.374  1.00  0.00     0.027 A 
ATOM     24  C   UNL     1      56.476  36.684  24.608  1.00  0.00     0.014 A 
ATOM     25  C   UNL     1      55.023  37.806  23.054  1.00  0.00     0.014 A 
ATOM     26  C   UNL     1      55.208  37.051  24.192  1.00  0.00     0.027 A 
BRANCH  26  27
ATOM     27  C   UNL     1      53.881  36.584  24.729  1.00  0.00     0.266 C 
ATOM     28  O   UNL     1      53.643  35.438  25.011  1.00  0.00    -0.284 OA
BRANCH  27  29
ATOM     29  C   UNL     1      53.098  37.732  25.362  1.00  0.00     0.454 C 
ATOM     30  F   UNL     1      52.769  38.782  24.593  1.00  0.00    -0.163 F 
ATOM     31  F   UNL     1      53.975  38.174  26.270  1.00  0.00    -0.163 F 
ATOM     32  F   UNL     1      52.003  37.322  25.972  1.00  0.00    -0.163 F 
ENDBRANCH  27  29
ENDBRANCH  26  27
ENDBRANCH  18  21
ENDBRANCH   1  17
BRANCH   1  33
ATOM     33  C   UNL     1      60.546  38.668  20.761  1.00  0.00     0.015 C 
ATOM     34  C   UNL     1      60.659  38.438  19.258  1.00  0.00     0.010 C 
ATOM     35  C   UNL     1      61.868  38.283  21.428  1.00  0.00     0.010 C 
ENDBRANCH   1  33
TORSDOF 12
ENDMDL
MODEL 20
REMARK VINA RESULT:    -6.678      7.638     11.075
REMARK INTER + INTRA:         -12.221
REMARK INTER:                 -11.028
REMARK INTRA:                  -1.193
REMARK UNBOUND:                -1.248
REMARK SMILES CC(C)C[C@H](C(=O)N[C@H](C(=O)Nc1ccc(C(=O)C(F)(F)F)cc1)C(C)C)P(=O)(O)O
REMARK SMILES IDX 9 1 8 2 6 3 7 4 5 6 4 7 2 8 1 9 3 10 28 11 29 12 30 13 31 15
REMARK SMILES IDX 10 17 12 18 11 19 13 21 14 22 24 23 15 24 23 25 16 26 17 27
REMARK SMILES IDX 18 28 19 29 20 30 21 31 22 32 25 33 26 34 27 35
REMARK H PARENT 8 5 30 14 31 16 12 20
ROOT
ATOM      1  C   UNL     1      51.113  32.953  19.791  1.00  0.00     0.174 C 
ENDROOT
BRANCH   1   2
ATOM      2  N   UNL     1      51.970  32.257  18.926  1.00  0.00    -0.343 N 
ATOM      3  C   UNL     1      51.612  30.934  18.626  1.00  0.00     0.235 C 
ATOM      4  O   UNL     1      50.595  30.506  19.022  1.00  0.00    -0.274 OA
ATOM      5  H   UNL     1      52.816  32.694  18.532  1.00  0.00     0.164 HD
BRANCH   3   6
ATOM      6  C   UNL     1      52.625  30.149  17.807  1.00  0.00     0.193 C 
BRANCH   6   7
ATOM      7  C   UNL     1      51.935  28.929  17.250  1.00  0.00     0.029 C 
BRANCH   7   8
ATOM      8  C   UNL     1      52.358  27.608  17.891  1.00  0.00    -0.016 C 
ATOM      9  C   UNL     1      51.544  27.226  19.122  1.00  0.00     0.007 C 
ATOM     10  C   UNL     1      53.847  27.630  18.176  1.00  0.00     0.007 C 
ENDBRANCH   7   8
ENDBRANCH   6   7
BRANCH   6  11
ATOM     11  P   UNL     1      53.559  31.119  16.634  1.00  0.00     0.337 P 
ATOM     12  O   UNL     1      54.599  31.951  17.350  1.00  0.00    -0.260 OA
BRANCH  11  13
ATOM     13  O   UNL     1      52.607  32.047  15.997  1.00  0.00    -0.324 OA
ATOM     14  H   UNL     1      52.191  32.620  16.689  1.00  0.00     0.221 HD
ENDBRANCH  11  13
BRANCH  11  15
ATOM     15  O   UNL     1      54.098  30.177  15.568  1.00  0.00    -0.324 OA
ATOM     16  H   UNL     1      53.549  30.258  14.748  1.00  0.00     0.221 HD
ENDBRANCH  11  15
ENDBRANCH   6  11
ENDBRANCH   3   6
ENDBRANCH   1   2
BRANCH   1  17
ATOM     17  C   UNL     1      49.738  33.255  19.303  1.00  0.00     0.247 C 
ATOM     18  N   UNL     1      49.717  33.515  17.911  1.00  0.00    -0.324 N 
ATOM     19  O   UNL     1      48.822  33.256  20.018  1.00  0.00    -0.272 OA
ATOM     20  H   UNL     1      50.607  33.656  17.412  1.00  0.00     0.170 HD
BRANCH  18  21
ATOM     21  C   UNL     1      48.468  33.587  17.170  1.00  0.00     0.041 A 
ATOM     22  C   UNL     1      47.252  34.045  17.630  1.00  0.00     0.027 A 
ATOM     23  C   UNL     1      48.515  32.819  16.007  1.00  0.00     0.027 A 
ATOM     24  C   UNL     1      46.131  33.964  16.790  1.00  0.00     0.014 A 
ATOM     25  C   UNL     1      47.410  32.699  15.193  1.00  0.00     0.014 A 
ATOM     26  C   UNL     1      46.235  33.309  15.575  1.00  0.00     0.027 A 
BRANCH  26  27
ATOM     27  C   UNL     1      45.138  32.986  14.595  1.00  0.00     0.266 C 
ATOM     28  O   UNL     1      44.642  31.894  14.487  1.00  0.00    -0.284 OA
BRANCH  27  29
ATOM     29  C   UNL     1      44.382  34.242  14.165  1.00  0.00     0.454 C 
ATOM     30  F   UNL     1      43.750  34.233  12.981  1.00  0.00    -0.163 F 
ATOM     31  F   UNL     1      45.381  35.125  14.067  1.00  0.00    -0.163 F 
ATOM     32  F   UNL     1      43.521  34.650  15.077  1.00  0.00    -0.163 F 
ENDBRANCH  27  29
ENDBRANCH  26  27
ENDBRANCH  18  21
ENDBRANCH   1  17
BRANCH   1  33
ATOM     33  C   UNL     1      51.812  34.392  19.906  1.00  0.00     0.015 C 
ATOM     34  C   UNL     1      51.436  35.136  21.182  1.00  0.00     0.010 C 
ATOM     35  C   UNL     1      53.336  34.361  19.774  1.00  0.00     0.010 C 
ENDBRANCH   1  33
TORSDOF 12
ENDMDL
