MODEL 1
REMARK VINA RESULT:    -8.076      0.000      0.000
REMARK INTER + INTRA:         -13.663
REMARK INTER:                 -12.326
REMARK INTRA:                  -1.337
REMARK UNBOUND:                -1.337
REMARK SMILES CC(C)C[C@H](C(=O)N[C@H](C(=O)Nc1ccc(Cl)c(Cl)c1)C(C)C)P(=O)(O)O
REMARK SMILES IDX 6 1 8 2 7 3 9 5 10 6 12 7 11 8 13 10 20 11 14 12 18 13 15 14
REMARK SMILES IDX 16 15 19 16 17 17 21 18 22 19 23 20 5 21 4 22 2 23 1 24 3 25
REMARK SMILES IDX 24 26 25 27 27 28 26 30
REMARK H PARENT 8 4 12 9 27 29 26 31
ROOT
ATOM      1  C   UNL     1      52.580  35.633  21.066  1.00  0.00     0.235 C 
ATOM      2  N   UNL     1      53.092  35.489  22.407  1.00  0.00    -0.343 N 
ATOM      3  O   UNL     1      52.329  36.689  20.544  1.00  0.00    -0.274 OA
ATOM      4  H   UNL     1      53.352  34.556  22.756  1.00  0.00     0.164 HD
ENDROOT
BRANCH   2   5
ATOM      5  C   UNL     1      53.244  36.630  23.255  1.00  0.00     0.174 C 
BRANCH   5   6
ATOM      6  C   UNL     1      54.493  37.432  23.094  1.00  0.00     0.247 C 
ATOM      7  N   UNL     1      55.605  36.683  22.578  1.00  0.00    -0.324 N 
ATOM      8  O   UNL     1      54.456  38.593  23.331  1.00  0.00    -0.272 OA
ATOM      9  H   UNL     1      55.467  35.678  22.396  1.00  0.00     0.170 HD
BRANCH   7  10
ATOM     10  C   UNL     1      56.905  37.246  22.298  1.00  0.00     0.042 A 
ATOM     11  C   UNL     1      57.131  38.129  21.261  1.00  0.00     0.048 A 
ATOM     12  C   UNL     1      57.940  36.812  23.104  1.00  0.00     0.028 A 
ATOM     13  C   UNL     1      58.420  38.601  21.071  1.00  0.00     0.061 A 
ATOM     14  C   UNL     1      59.218  37.274  22.911  1.00  0.00     0.024 A 
ATOM     15  C   UNL     1      59.457  38.170  21.901  1.00  0.00     0.059 A 
ATOM     16  Cl  UNL     1      58.716  39.764  19.751  1.00  0.00    -0.083 Cl
ATOM     17  Cl  UNL     1      61.148  38.703  21.740  1.00  0.00    -0.083 Cl
ENDBRANCH   7  10
ENDBRANCH   5   6
BRANCH   5  18
ATOM     18  C   UNL     1      53.069  36.254  24.742  1.00  0.00     0.015 C 
ATOM     19  C   UNL     1      52.324  37.262  25.628  1.00  0.00     0.010 C 
ATOM     20  C   UNL     1      54.364  35.817  25.443  1.00  0.00     0.010 C 
ENDBRANCH   5  18
ENDBRANCH   2   5
BRANCH   1  21
ATOM     21  C   UNL     1      52.390  34.308  20.355  1.00  0.00     0.193 C 
BRANCH  21  22
ATOM     22  C   UNL     1      51.218  34.423  19.382  1.00  0.00     0.029 C 
BRANCH  22  23
ATOM     23  C   UNL     1      50.140  33.342  19.575  1.00  0.00    -0.016 C 
ATOM     24  C   UNL     1      49.036  33.564  18.541  1.00  0.00     0.007 C 
ATOM     25  C   UNL     1      50.697  31.923  19.500  1.00  0.00     0.007 C 
ENDBRANCH  22  23
ENDBRANCH  21  22
BRANCH  21  26
ATOM     26  P   UNL     1      53.982  33.785  19.622  1.00  0.00     0.337 P 
ATOM     27  O   UNL     1      53.803  33.604  18.140  1.00  0.00    -0.260 OA
BRANCH  26  28
ATOM     28  O   UNL     1      55.016  34.785  20.018  1.00  0.00    -0.324 OA
ATOM     29  H   UNL     1      54.572  35.599  20.364  1.00  0.00     0.221 HD
ENDBRANCH  26  28
BRANCH  26  30
ATOM     30  O   UNL     1      54.380  32.505  20.318  1.00  0.00    -0.324 OA
ATOM     31  H   UNL     1      55.335  32.553  20.576  1.00  0.00     0.221 HD
ENDBRANCH  26  30
ENDBRANCH  21  26
ENDBRANCH   1  21
TORSDOF 10
ENDMDL
MODEL 2
REMARK VINA RESULT:    -7.530      3.381      5.420
REMARK INTER + INTRA:         -12.829
REMARK INTER:                 -11.864
REMARK INTRA:                  -0.965
REMARK UNBOUND:                -1.337
REMARK SMILES CC(C)C[C@H](C(=O)N[C@H](C(=O)Nc1ccc(Cl)c(Cl)c1)C(C)C)P(=O)(O)O
REMARK SMILES IDX 6 1 8 2 7 3 9 5 10 6 12 7 11 8 13 10 20 11 14 12 18 13 15 14
REMARK SMILES IDX 16 15 19 16 17 17 21 18 22 19 23 20 5 21 4 22 2 23 1 24 3 25
REMARK SMILES IDX 24 26 25 27 27 28 26 30
REMARK H PARENT 8 4 12 9 27 29 26 31
ROOT
ATOM      1  C   UNL     1      55.070  37.310  22.436  1.00  0.00     0.235 C 
ATOM      2  N   UNL     1      56.189  36.408  22.307  1.00  0.00    -0.343 N 
ATOM      3  O   UNL     1      55.128  38.497  22.248  1.00  0.00    -0.274 OA
ATOM      4  H   UNL     1      56.043  35.395  22.411  1.00  0.00     0.164 HD
ENDROOT
BRANCH   2   5
ATOM      5  C   UNL     1      57.500  36.911  22.034  1.00  0.00     0.174 C 
BRANCH   5   6
ATOM      6  C   UNL     1      58.039  36.684  20.660  1.00  0.00     0.247 C 
ATOM      7  N   UNL     1      58.097  37.871  19.852  1.00  0.00    -0.324 N 
ATOM      8  O   UNL     1      58.423  35.600  20.374  1.00  0.00    -0.272 OA
ATOM      9  H   UNL     1      57.745  38.749  20.260  1.00  0.00     0.170 HD
BRANCH   7  10
ATOM     10  C   UNL     1      58.616  37.914  18.505  1.00  0.00     0.042 A 
ATOM     11  C   UNL     1      58.446  36.881  17.604  1.00  0.00     0.048 A 
ATOM     12  C   UNL     1      59.346  39.038  18.172  1.00  0.00     0.028 A 
ATOM     13  C   UNL     1      58.996  37.017  16.339  1.00  0.00     0.061 A 
ATOM     14  C   UNL     1      59.896  39.170  16.922  1.00  0.00     0.024 A 
ATOM     15  C   UNL     1      59.718  38.165  16.006  1.00  0.00     0.059 A 
ATOM     16  Cl  UNL     1      58.757  35.700  15.160  1.00  0.00    -0.083 Cl
ATOM     17  Cl  UNL     1      60.473  38.440  14.418  1.00  0.00    -0.083 Cl
ENDBRANCH   7  10
ENDBRANCH   5   6
BRANCH   5  18
ATOM     18  C   UNL     1      58.524  36.405  23.072  1.00  0.00     0.015 C 
ATOM     19  C   UNL     1      58.028  36.253  24.517  1.00  0.00     0.010 C 
ATOM     20  C   UNL     1      59.860  37.164  23.068  1.00  0.00     0.010 C 
ENDBRANCH   5  18
ENDBRANCH   2   5
BRANCH   1  21
ATOM     21  C   UNL     1      53.784  36.609  22.829  1.00  0.00     0.193 C 
BRANCH  21  22
ATOM     22  C   UNL     1      52.859  37.607  23.521  1.00  0.00     0.029 C 
BRANCH  22  23
ATOM     23  C   UNL     1      52.552  37.260  24.988  1.00  0.00    -0.016 C 
ATOM     24  C   UNL     1      53.623  36.294  25.496  1.00  0.00     0.007 C 
ATOM     25  C   UNL     1      52.442  38.492  25.884  1.00  0.00     0.007 C 
ENDBRANCH  22  23
ENDBRANCH  21  22
BRANCH  21  26
ATOM     26  P   UNL     1      53.087  35.765  21.364  1.00  0.00     0.337 P 
ATOM     27  O   UNL     1      54.212  35.343  20.460  1.00  0.00    -0.260 OA
BRANCH  26  28
ATOM     28  O   UNL     1      52.213  34.657  21.849  1.00  0.00    -0.324 OA
ATOM     29  H   UNL     1      51.744  34.944  22.672  1.00  0.00     0.221 HD
ENDBRANCH  26  28
BRANCH  26  30
ATOM     30  O   UNL     1      52.150  36.748  20.702  1.00  0.00    -0.324 OA
ATOM     31  H   UNL     1      51.600  36.276  20.027  1.00  0.00     0.221 HD
ENDBRANCH  26  30
ENDBRANCH  21  26
ENDBRANCH   1  21
TORSDOF 10
ENDMDL
MODEL 3
REMARK VINA RESULT:    -7.291      3.207      5.277
REMARK INTER + INTRA:         -12.464
REMARK INTER:                 -11.494
REMARK INTRA:                  -0.971
REMARK UNBOUND:                -1.337
REMARK SMILES CC(C)C[C@H](C(=O)N[C@H](C(=O)Nc1ccc(Cl)c(Cl)c1)C(C)C)P(=O)(O)O
REMARK SMILES IDX 6 1 8 2 7 3 9 5 10 6 12 7 11 8 13 10 20 11 14 12 18 13 15 14
REMARK SMILES IDX 16 15 19 16 17 17 21 18 22 19 23 20 5 21 4 22 2 23 1 24 3 25
REMARK SMILES IDX 24 26 25 27 27 28 26 30
REMARK H PARENT 8 4 12 9 27 29 26 31
ROOT
ATOM      1  C   UNL     1      55.082  37.364  22.589  1.00  0.00     0.235 C 
ATOM      2  N   UNL     1      56.326  36.635  22.655  1.00  0.00    -0.343 N 
ATOM      3  O   UNL     1      54.990  38.523  22.274  1.00  0.00    -0.274 OA
ATOM      4  H   UNL     1      56.316  35.626  22.861  1.00  0.00     0.164 HD
ENDROOT
BRANCH   2   5
ATOM      5  C   UNL     1      57.572  37.301  22.435  1.00  0.00     0.174 C 
BRANCH   5   6
ATOM      6  C   UNL     1      58.181  37.166  21.079  1.00  0.00     0.247 C 
ATOM      7  N   UNL     1      58.886  38.337  20.635  1.00  0.00    -0.324 N 
ATOM      8  O   UNL     1      58.097  36.123  20.521  1.00  0.00    -0.272 OA
ATOM      9  H   UNL     1      58.889  39.160  21.254  1.00  0.00     0.170 HD
BRANCH   7  10
ATOM     10  C   UNL     1      59.591  38.435  19.378  1.00  0.00     0.042 A 
ATOM     11  C   UNL     1      60.881  37.973  19.206  1.00  0.00     0.048 A 
ATOM     12  C   UNL     1      58.916  39.068  18.353  1.00  0.00     0.028 A 
ATOM     13  C   UNL     1      61.471  38.127  17.961  1.00  0.00     0.061 A 
ATOM     14  C   UNL     1      59.503  39.227  17.123  1.00  0.00     0.024 A 
ATOM     15  C   UNL     1      60.775  38.754  16.925  1.00  0.00     0.059 A 
ATOM     16  Cl  UNL     1      63.127  37.508  17.721  1.00  0.00    -0.083 Cl
ATOM     17  Cl  UNL     1      61.439  39.013  15.294  1.00  0.00    -0.083 Cl
ENDBRANCH   7  10
ENDBRANCH   5   6
BRANCH   5  18
ATOM     18  C   UNL     1      58.616  36.909  23.503  1.00  0.00     0.015 C 
ATOM     19  C   UNL     1      59.847  36.134  23.015  1.00  0.00     0.010 C 
ATOM     20  C   UNL     1      58.028  36.209  24.738  1.00  0.00     0.010 C 
ENDBRANCH   5  18
ENDBRANCH   2   5
BRANCH   1  21
ATOM     21  C   UNL     1      53.877  36.520  22.952  1.00  0.00     0.193 C 
BRANCH  21  22
ATOM     22  C   UNL     1      52.902  37.362  23.772  1.00  0.00     0.029 C 
BRANCH  22  23
ATOM     23  C   UNL     1      53.372  37.636  25.211  1.00  0.00    -0.016 C 
ATOM     24  C   UNL     1      52.289  38.439  25.934  1.00  0.00     0.007 C 
ATOM     25  C   UNL     1      53.726  36.363  25.977  1.00  0.00     0.007 C 
ENDBRANCH  22  23
ENDBRANCH  21  22
BRANCH  21  26
ATOM     26  P   UNL     1      53.192  35.765  21.433  1.00  0.00     0.337 P 
ATOM     27  O   UNL     1      52.380  36.795  20.698  1.00  0.00    -0.260 OA
BRANCH  26  28
ATOM     28  O   UNL     1      54.328  35.184  20.661  1.00  0.00    -0.324 OA
ATOM     29  H   UNL     1      54.222  34.201  20.608  1.00  0.00     0.221 HD
ENDBRANCH  26  28
BRANCH  26  30
ATOM     30  O   UNL     1      52.364  34.581  21.873  1.00  0.00    -0.324 OA
ATOM     31  H   UNL     1      51.462  34.890  22.141  1.00  0.00     0.221 HD
ENDBRANCH  26  30
ENDBRANCH  21  26
ENDBRANCH   1  21
TORSDOF 10
ENDMDL
MODEL 4
REMARK VINA RESULT:    -7.197      4.022      7.331
REMARK INTER + INTRA:         -12.321
REMARK INTER:                 -11.044
REMARK INTRA:                  -1.276
REMARK UNBOUND:                -1.337
REMARK SMILES CC(C)C[C@H](C(=O)N[C@H](C(=O)Nc1ccc(Cl)c(Cl)c1)C(C)C)P(=O)(O)O
REMARK SMILES IDX 6 1 8 2 7 3 9 5 10 6 12 7 11 8 13 10 20 11 14 12 18 13 15 14
REMARK SMILES IDX 16 15 19 16 17 17 21 18 22 19 23 20 5 21 4 22 2 23 1 24 3 25
REMARK SMILES IDX 24 26 25 27 27 28 26 30
REMARK H PARENT 8 4 12 9 27 29 26 31
ROOT
ATOM      1  C   UNL     1      56.166  36.508  21.149  1.00  0.00     0.235 C 
ATOM      2  N   UNL     1      55.275  36.868  22.225  1.00  0.00    -0.343 N 
ATOM      3  O   UNL     1      55.983  35.587  20.396  1.00  0.00    -0.274 OA
ATOM      4  H   UNL     1      55.462  37.715  22.781  1.00  0.00     0.164 HD
ENDROOT
BRANCH   2   5
ATOM      5  C   UNL     1      54.135  36.061  22.528  1.00  0.00     0.174 C 
BRANCH   5   6
ATOM      6  C   UNL     1      53.168  35.813  21.417  1.00  0.00     0.247 C 
ATOM      7  N   UNL     1      53.128  34.447  20.972  1.00  0.00    -0.324 N 
ATOM      8  O   UNL     1      52.488  36.710  21.047  1.00  0.00    -0.272 OA
ATOM      9  H   UNL     1      53.770  33.776  21.417  1.00  0.00     0.170 HD
BRANCH   7  10
ATOM     10  C   UNL     1      52.247  33.954  19.940  1.00  0.00     0.042 A 
ATOM     11  C   UNL     1      50.899  33.736  20.147  1.00  0.00     0.048 A 
ATOM     12  C   UNL     1      52.838  33.660  18.726  1.00  0.00     0.028 A 
ATOM     13  C   UNL     1      50.143  33.248  19.092  1.00  0.00     0.061 A 
ATOM     14  C   UNL     1      52.091  33.170  17.685  1.00  0.00     0.024 A 
ATOM     15  C   UNL     1      50.747  32.970  17.864  1.00  0.00     0.059 A 
ATOM     16  Cl  UNL     1      48.396  32.991  19.344  1.00  0.00    -0.083 Cl
ATOM     17  Cl  UNL     1      49.875  32.333  16.449  1.00  0.00    -0.083 Cl
ENDBRANCH   7  10
ENDBRANCH   5   6
BRANCH   5  18
ATOM     18  C   UNL     1      53.371  36.602  23.755  1.00  0.00     0.015 C 
ATOM     19  C   UNL     1      53.418  38.118  23.986  1.00  0.00     0.010 C 
ATOM     20  C   UNL     1      53.688  35.875  25.071  1.00  0.00     0.010 C 
ENDBRANCH   5  18
ENDBRANCH   2   5
BRANCH   1  21
ATOM     21  C   UNL     1      57.373  37.418  21.045  1.00  0.00     0.193 C 
BRANCH  21  22
ATOM     22  C   UNL     1      57.997  37.586  22.428  1.00  0.00     0.029 C 
BRANCH  22  23
ATOM     23  C   UNL     1      58.354  36.257  23.117  1.00  0.00    -0.016 C 
ATOM     24  C   UNL     1      59.876  36.112  23.141  1.00  0.00     0.007 C 
ATOM     25  C   UNL     1      57.761  36.134  24.519  1.00  0.00     0.007 C 
ENDBRANCH  22  23
ENDBRANCH  21  22
BRANCH  21  26
ATOM     26  P   UNL     1      58.491  36.789  19.741  1.00  0.00     0.337 P 
ATOM     27  O   UNL     1      59.784  37.555  19.792  1.00  0.00    -0.260 OA
BRANCH  26  28
ATOM     28  O   UNL     1      58.619  35.314  19.923  1.00  0.00    -0.324 OA
ATOM     29  H   UNL     1      59.480  35.009  19.542  1.00  0.00     0.221 HD
ENDBRANCH  26  28
BRANCH  26  30
ATOM     30  O   UNL     1      57.765  36.964  18.427  1.00  0.00    -0.324 OA
ATOM     31  H   UNL     1      57.760  36.104  17.936  1.00  0.00     0.221 HD
ENDBRANCH  26  30
ENDBRANCH  21  26
ENDBRANCH   1  21
TORSDOF 10
ENDMDL
MODEL 5
REMARK VINA RESULT:    -6.763      5.036      8.580
REMARK INTER + INTRA:         -11.659
REMARK INTER:                 -11.109
REMARK INTRA:                  -0.550
REMARK UNBOUND:                -1.337
REMARK SMILES CC(C)C[C@H](C(=O)N[C@H](C(=O)Nc1ccc(Cl)c(Cl)c1)C(C)C)P(=O)(O)O
REMARK SMILES IDX 6 1 8 2 7 3 9 5 10 6 12 7 11 8 13 10 20 11 14 12 18 13 15 14
REMARK SMILES IDX 16 15 19 16 17 17 21 18 22 19 23 20 5 21 4 22 2 23 1 24 3 25
REMARK SMILES IDX 24 26 25 27 27 28 26 30
REMARK H PARENT 8 4 12 9 27 29 26 31
ROOT
ATOM      1  C   UNL     1      53.247  36.210  21.355  1.00  0.00     0.235 C 
ATOM      2  N   UNL     1      53.757  34.917  20.968  1.00  0.00    -0.343 N 
ATOM      3  O   UNL     1      52.455  36.849  20.710  1.00  0.00    -0.274 OA
ATOM      4  H   UNL     1      54.375  34.400  21.610  1.00  0.00     0.164 HD
ENDROOT
BRANCH   2   5
ATOM      5  C   UNL     1      53.413  34.348  19.703  1.00  0.00     0.174 C 
BRANCH   5   6
ATOM      6  C   UNL     1      52.049  33.755  19.577  1.00  0.00     0.247 C 
ATOM      7  N   UNL     1      51.535  33.753  18.235  1.00  0.00    -0.324 N 
ATOM      8  O   UNL     1      51.541  33.291  20.542  1.00  0.00    -0.272 OA
ATOM      9  H   UNL     1      52.115  34.174  17.496  1.00  0.00     0.170 HD
BRANCH   7  10
ATOM     10  C   UNL     1      50.257  33.198  17.854  1.00  0.00     0.042 A 
ATOM     11  C   UNL     1      50.128  31.969  17.237  1.00  0.00     0.048 A 
ATOM     12  C   UNL     1      49.154  33.992  18.099  1.00  0.00     0.028 A 
ATOM     13  C   UNL     1      48.855  31.534  16.902  1.00  0.00     0.061 A 
ATOM     14  C   UNL     1      47.895  33.565  17.761  1.00  0.00     0.024 A 
ATOM     15  C   UNL     1      47.744  32.337  17.169  1.00  0.00     0.059 A 
ATOM     16  Cl  UNL     1      48.677  29.936  16.131  1.00  0.00    -0.083 Cl
ATOM     17  Cl  UNL     1      46.070  31.882  16.773  1.00  0.00    -0.083 Cl
ENDBRANCH   7  10
ENDBRANCH   5   6
BRANCH   5  18
ATOM     18  C   UNL     1      54.463  33.311  19.248  1.00  0.00     0.015 C 
ATOM     19  C   UNL     1      55.697  33.852  18.513  1.00  0.00     0.010 C 
ATOM     20  C   UNL     1      53.884  32.122  18.466  1.00  0.00     0.010 C 
ENDBRANCH   5  18
ENDBRANCH   2   5
BRANCH   1  21
ATOM     21  C   UNL     1      53.801  36.698  22.679  1.00  0.00     0.193 C 
BRANCH  21  22
ATOM     22  C   UNL     1      53.491  35.668  23.763  1.00  0.00     0.029 C 
BRANCH  22  23
ATOM     23  C   UNL     1      52.963  36.280  25.073  1.00  0.00    -0.016 C 
ATOM     24  C   UNL     1      54.033  36.120  26.153  1.00  0.00     0.007 C 
ATOM     25  C   UNL     1      52.539  37.739  24.921  1.00  0.00     0.007 C 
ENDBRANCH  22  23
ENDBRANCH  21  22
BRANCH  21  26
ATOM     26  P   UNL     1      55.567  37.125  22.471  1.00  0.00     0.337 P 
ATOM     27  O   UNL     1      55.684  38.592  22.165  1.00  0.00    -0.260 OA
BRANCH  26  28
ATOM     28  O   UNL     1      56.292  36.672  23.694  1.00  0.00    -0.324 OA
ATOM     29  H   UNL     1      56.392  35.687  23.673  1.00  0.00     0.221 HD
ENDBRANCH  26  28
BRANCH  26  30
ATOM     30  O   UNL     1      56.095  36.256  21.354  1.00  0.00    -0.324 OA
ATOM     31  H   UNL     1      56.378  35.381  21.722  1.00  0.00     0.221 HD
ENDBRANCH  26  30
ENDBRANCH  21  26
ENDBRANCH   1  21
TORSDOF 10
ENDMDL
MODEL 6
REMARK VINA RESULT:    -6.757      6.927     10.567
REMARK INTER + INTRA:         -11.650
REMARK INTER:                 -10.346
REMARK INTRA:                  -1.304
REMARK UNBOUND:                -1.337
REMARK SMILES CC(C)C[C@H](C(=O)N[C@H](C(=O)Nc1ccc(Cl)c(Cl)c1)C(C)C)P(=O)(O)O
REMARK SMILES IDX 6 1 8 2 7 3 9 5 10 6 12 7 11 8 13 10 20 11 14 12 18 13 15 14
REMARK SMILES IDX 16 15 19 16 17 17 21 18 22 19 23 20 5 21 4 22 2 23 1 24 3 25
REMARK SMILES IDX 24 26 25 27 27 28 26 30
REMARK H PARENT 8 4 12 9 27 29 26 31
ROOT
ATOM      1  C   UNL     1      51.691  32.471  17.620  1.00  0.00     0.235 C 
ATOM      2  N   UNL     1      50.843  31.350  17.949  1.00  0.00    -0.343 N 
ATOM      3  O   UNL     1      51.924  32.840  16.498  1.00  0.00    -0.274 OA
ATOM      4  H   UNL     1      50.632  31.142  18.935  1.00  0.00     0.164 HD
ENDROOT
BRANCH   2   5
ATOM      5  C   UNL     1      50.294  30.526  16.917  1.00  0.00     0.174 C 
BRANCH   5   6
ATOM      6  C   UNL     1      48.926  30.873  16.431  1.00  0.00     0.247 C 
ATOM      7  N   UNL     1      48.631  32.278  16.472  1.00  0.00    -0.324 N 
ATOM      8  O   UNL     1      48.240  30.006  16.003  1.00  0.00    -0.272 OA
ATOM      9  H   UNL     1      49.350  32.911  16.850  1.00  0.00     0.170 HD
BRANCH   7  10
ATOM     10  C   UNL     1      47.390  32.862  16.017  1.00  0.00     0.042 A 
ATOM     11  C   UNL     1      46.861  32.616  14.766  1.00  0.00     0.048 A 
ATOM     12  C   UNL     1      46.773  33.732  16.894  1.00  0.00     0.028 A 
ATOM     13  C   UNL     1      45.670  33.238  14.424  1.00  0.00     0.061 A 
ATOM     14  C   UNL     1      45.598  34.353  16.553  1.00  0.00     0.024 A 
ATOM     15  C   UNL     1      45.044  34.103  15.323  1.00  0.00     0.059 A 
ATOM     16  Cl  UNL     1      44.965  32.903  12.820  1.00  0.00    -0.083 Cl
ATOM     17  Cl  UNL     1      43.521  34.959  14.985  1.00  0.00    -0.083 Cl
ENDBRANCH   7  10
ENDBRANCH   5   6
BRANCH   5  18
ATOM     18  C   UNL     1      50.332  29.033  17.309  1.00  0.00     0.015 C 
ATOM     19  C   UNL     1      50.277  28.710  18.808  1.00  0.00     0.010 C 
ATOM     20  C   UNL     1      51.470  28.234  16.655  1.00  0.00     0.010 C 
ENDBRANCH   5  18
ENDBRANCH   2   5
BRANCH   1  21
ATOM     21  C   UNL     1      52.264  33.162  18.841  1.00  0.00     0.193 C 
BRANCH  21  22
ATOM     22  C   UNL     1      53.461  34.013  18.422  1.00  0.00     0.029 C 
BRANCH  22  23
ATOM     23  C   UNL     1      54.807  33.510  18.971  1.00  0.00    -0.016 C 
ATOM     24  C   UNL     1      54.856  31.989  18.823  1.00  0.00     0.007 C 
ATOM     25  C   UNL     1      56.009  34.174  18.305  1.00  0.00     0.007 C 
ENDBRANCH  22  23
ENDBRANCH  21  22
BRANCH  21  26
ATOM     26  P   UNL     1      50.924  34.051  19.713  1.00  0.00     0.337 P 
ATOM     27  O   UNL     1      49.604  33.672  19.100  1.00  0.00    -0.260 OA
BRANCH  26  28
ATOM     28  O   UNL     1      51.055  33.757  21.170  1.00  0.00    -0.324 OA
ATOM     29  H   UNL     1      51.246  34.597  21.660  1.00  0.00     0.221 HD
ENDBRANCH  26  28
BRANCH  26  30
ATOM     30  O   UNL     1      51.223  35.526  19.578  1.00  0.00    -0.324 OA
ATOM     31  H   UNL     1      50.508  36.049  20.020  1.00  0.00     0.221 HD
ENDBRANCH  26  30
ENDBRANCH  21  26
ENDBRANCH   1  21
TORSDOF 10
ENDMDL
MODEL 7
REMARK VINA RESULT:    -6.712      4.987      7.404
REMARK INTER + INTRA:         -11.581
REMARK INTER:                 -10.150
REMARK INTRA:                  -1.431
REMARK UNBOUND:                -1.337
REMARK SMILES CC(C)C[C@H](C(=O)N[C@H](C(=O)Nc1ccc(Cl)c(Cl)c1)C(C)C)P(=O)(O)O
REMARK SMILES IDX 6 1 8 2 7 3 9 5 10 6 12 7 11 8 13 10 20 11 14 12 18 13 15 14
REMARK SMILES IDX 16 15 19 16 17 17 21 18 22 19 23 20 5 21 4 22 2 23 1 24 3 25
REMARK SMILES IDX 24 26 25 27 27 28 26 30
REMARK H PARENT 8 4 12 9 27 29 26 31
ROOT
ATOM      1  C   UNL     1      47.796  33.148  17.083  1.00  0.00     0.235 C 
ATOM      2  N   UNL     1      49.218  32.901  17.056  1.00  0.00    -0.343 N 
ATOM      3  O   UNL     1      47.137  33.211  18.088  1.00  0.00    -0.274 OA
ATOM      4  H   UNL     1      49.725  32.935  16.160  1.00  0.00     0.164 HD
ENDROOT
BRANCH   2   5
ATOM      5  C   UNL     1      49.929  32.611  18.262  1.00  0.00     0.174 C 
BRANCH   5   6
ATOM      6  C   UNL     1      50.669  33.740  18.899  1.00  0.00     0.247 C 
ATOM      7  N   UNL     1      51.905  33.352  19.520  1.00  0.00    -0.324 N 
ATOM      8  O   UNL     1      50.232  34.836  18.792  1.00  0.00    -0.272 OA
ATOM      9  H   UNL     1      52.160  32.354  19.504  1.00  0.00     0.170 HD
BRANCH   7  10
ATOM     10  C   UNL     1      52.815  34.270  20.165  1.00  0.00     0.042 A 
ATOM     11  C   UNL     1      52.417  35.146  21.156  1.00  0.00     0.048 A 
ATOM     12  C   UNL     1      54.116  34.262  19.700  1.00  0.00     0.028 A 
ATOM     13  C   UNL     1      53.368  35.994  21.701  1.00  0.00     0.061 A 
ATOM     14  C   UNL     1      55.055  35.107  20.235  1.00  0.00     0.024 A 
ATOM     15  C   UNL     1      54.685  35.967  21.236  1.00  0.00     0.059 A 
ATOM     16  Cl  UNL     1      52.870  37.109  23.001  1.00  0.00    -0.083 Cl
ATOM     17  Cl  UNL     1      55.981  37.017  21.857  1.00  0.00    -0.083 Cl
ENDBRANCH   7  10
ENDBRANCH   5   6
BRANCH   5  18
ATOM     18  C   UNL     1      50.887  31.415  18.076  1.00  0.00     0.015 C 
ATOM     19  C   UNL     1      51.587  31.294  16.716  1.00  0.00     0.010 C 
ATOM     20  C   UNL     1      50.288  30.055  18.465  1.00  0.00     0.010 C 
ENDBRANCH   5  18
ENDBRANCH   2   5
BRANCH   1  21
ATOM     21  C   UNL     1      47.198  33.333  15.703  1.00  0.00     0.193 C 
BRANCH  21  22
ATOM     22  C   UNL     1      47.123  31.978  15.001  1.00  0.00     0.029 C 
BRANCH  22  23
ATOM     23  C   UNL     1      48.228  31.756  13.954  1.00  0.00    -0.016 C 
ATOM     24  C   UNL     1      48.916  30.423  14.245  1.00  0.00     0.007 C 
ATOM     25  C   UNL     1      47.710  31.815  12.519  1.00  0.00     0.007 C 
ENDBRANCH  22  23
ENDBRANCH  21  22
BRANCH  21  26
ATOM     26  P   UNL     1      45.616  34.238  15.850  1.00  0.00     0.337 P 
ATOM     27  O   UNL     1      45.120  34.586  14.473  1.00  0.00    -0.260 OA
BRANCH  26  28
ATOM     28  O   UNL     1      44.687  33.404  16.667  1.00  0.00    -0.324 OA
ATOM     29  H   UNL     1      45.196  32.950  17.384  1.00  0.00     0.221 HD
ENDBRANCH  26  28
BRANCH  26  30
ATOM     30  O   UNL     1      45.893  35.462  16.692  1.00  0.00    -0.324 OA
ATOM     31  H   UNL     1      46.870  35.623  16.728  1.00  0.00     0.221 HD
ENDBRANCH  26  30
ENDBRANCH  21  26
ENDBRANCH   1  21
TORSDOF 10
ENDMDL
MODEL 8
REMARK VINA RESULT:    -6.691      6.698     10.742
REMARK INTER + INTRA:         -11.549
REMARK INTER:                 -10.270
REMARK INTRA:                  -1.278
REMARK UNBOUND:                -1.337
REMARK SMILES CC(C)C[C@H](C(=O)N[C@H](C(=O)Nc1ccc(Cl)c(Cl)c1)C(C)C)P(=O)(O)O
REMARK SMILES IDX 6 1 8 2 7 3 9 5 10 6 12 7 11 8 13 10 20 11 14 12 18 13 15 14
REMARK SMILES IDX 16 15 19 16 17 17 21 18 22 19 23 20 5 21 4 22 2 23 1 24 3 25
REMARK SMILES IDX 24 26 25 27 27 28 26 30
REMARK H PARENT 8 4 12 9 27 29 26 31
ROOT
ATOM      1  C   UNL     1      51.483  32.331  17.703  1.00  0.00     0.235 C 
ATOM      2  N   UNL     1      50.695  31.148  17.949  1.00  0.00    -0.343 N 
ATOM      3  O   UNL     1      51.637  32.831  16.619  1.00  0.00    -0.274 OA
ATOM      4  H   UNL     1      50.550  30.823  18.916  1.00  0.00     0.164 HD
ENDROOT
BRANCH   2   5
ATOM      5  C   UNL     1      50.113  30.422  16.863  1.00  0.00     0.174 C 
BRANCH   5   6
ATOM      6  C   UNL     1      48.729  30.807  16.457  1.00  0.00     0.247 C 
ATOM      7  N   UNL     1      48.625  32.139  15.929  1.00  0.00    -0.324 N 
ATOM      8  O   UNL     1      47.869  29.995  16.536  1.00  0.00    -0.272 OA
ATOM      9  H   UNL     1      49.478  32.715  15.903  1.00  0.00     0.170 HD
BRANCH   7  10
ATOM     10  C   UNL     1      47.401  32.724  15.434  1.00  0.00     0.042 A 
ATOM     11  C   UNL     1      46.557  33.478  16.225  1.00  0.00     0.048 A 
ATOM     12  C   UNL     1      47.085  32.446  14.118  1.00  0.00     0.028 A 
ATOM     13  C   UNL     1      45.400  33.984  15.653  1.00  0.00     0.061 A 
ATOM     14  C   UNL     1      45.936  32.940  13.554  1.00  0.00     0.024 A 
ATOM     15  C   UNL     1      45.098  33.712  14.318  1.00  0.00     0.059 A 
ATOM     16  Cl  UNL     1      44.319  34.983  16.661  1.00  0.00    -0.083 Cl
ATOM     17  Cl  UNL     1      43.638  34.301  13.487  1.00  0.00    -0.083 Cl
ENDBRANCH   7  10
ENDBRANCH   5   6
BRANCH   5  18
ATOM     18  C   UNL     1      50.166  28.899  17.111  1.00  0.00     0.015 C 
ATOM     19  C   UNL     1      50.343  28.440  18.565  1.00  0.00     0.010 C 
ATOM     20  C   UNL     1      51.158  28.144  16.213  1.00  0.00     0.010 C 
ENDBRANCH   5  18
ENDBRANCH   2   5
BRANCH   1  21
ATOM     21  C   UNL     1      52.105  32.904  18.961  1.00  0.00     0.193 C 
BRANCH  21  22
ATOM     22  C   UNL     1      53.293  33.784  18.579  1.00  0.00     0.029 C 
BRANCH  22  23
ATOM     23  C   UNL     1      54.658  33.199  18.983  1.00  0.00    -0.016 C 
ATOM     24  C   UNL     1      54.846  31.861  18.267  1.00  0.00     0.007 C 
ATOM     25  C   UNL     1      55.821  34.148  18.704  1.00  0.00     0.007 C 
ENDBRANCH  22  23
ENDBRANCH  21  22
BRANCH  21  26
ATOM     26  P   UNL     1      50.804  33.717  19.958  1.00  0.00     0.337 P 
ATOM     27  O   UNL     1      49.551  32.887  19.899  1.00  0.00    -0.260 OA
BRANCH  26  28
ATOM     28  O   UNL     1      51.353  33.941  21.327  1.00  0.00    -0.324 OA
ATOM     29  H   UNL     1      51.062  33.206  21.924  1.00  0.00     0.221 HD
ENDBRANCH  26  28
BRANCH  26  30
ATOM     30  O   UNL     1      50.612  35.098  19.377  1.00  0.00    -0.324 OA
ATOM     31  H   UNL     1      50.911  35.776  20.033  1.00  0.00     0.221 HD
ENDBRANCH  26  30
ENDBRANCH  21  26
ENDBRANCH   1  21
TORSDOF 10
ENDMDL
MODEL 9
REMARK VINA RESULT:    -6.668      4.561      7.137
REMARK INTER + INTRA:         -11.513
REMARK INTER:                  -9.922
REMARK INTRA:                  -1.592
REMARK UNBOUND:                -1.337
REMARK SMILES CC(C)C[C@H](C(=O)N[C@H](C(=O)Nc1ccc(Cl)c(Cl)c1)C(C)C)P(=O)(O)O
REMARK SMILES IDX 6 1 8 2 7 3 9 5 10 6 12 7 11 8 13 10 20 11 14 12 18 13 15 14
REMARK SMILES IDX 16 15 19 16 17 17 21 18 22 19 23 20 5 21 4 22 2 23 1 24 3 25
REMARK SMILES IDX 24 26 25 27 27 28 26 30
REMARK H PARENT 8 4 12 9 27 29 26 31
ROOT
ATOM      1  C   UNL     1      47.939  32.535  17.955  1.00  0.00     0.235 C 
ATOM      2  N   UNL     1      49.257  32.073  17.593  1.00  0.00    -0.343 N 
ATOM      3  O   UNL     1      47.635  32.930  19.051  1.00  0.00    -0.274 OA
ATOM      4  H   UNL     1      49.459  31.820  16.615  1.00  0.00     0.164 HD
ENDROOT
BRANCH   2   5
ATOM      5  C   UNL     1      50.286  31.962  18.580  1.00  0.00     0.174 C 
BRANCH   5   6
ATOM      6  C   UNL     1      51.085  33.191  18.864  1.00  0.00     0.247 C 
ATOM      7  N   UNL     1      51.974  33.063  19.986  1.00  0.00    -0.324 N 
ATOM      8  O   UNL     1      50.978  34.119  18.134  1.00  0.00    -0.272 OA
ATOM      9  H   UNL     1      51.969  32.175  20.506  1.00  0.00     0.170 HD
BRANCH   7  10
ATOM     10  C   UNL     1      52.877  34.100  20.430  1.00  0.00     0.042 A 
ATOM     11  C   UNL     1      52.508  35.075  21.335  1.00  0.00     0.048 A 
ATOM     12  C   UNL     1      54.134  34.095  19.859  1.00  0.00     0.028 A 
ATOM     13  C   UNL     1      53.448  36.032  21.687  1.00  0.00     0.061 A 
ATOM     14  C   UNL     1      55.061  35.047  20.201  1.00  0.00     0.024 A 
ATOM     15  C   UNL     1      54.722  36.010  21.117  1.00  0.00     0.059 A 
ATOM     16  Cl  UNL     1      52.989  37.279  22.877  1.00  0.00    -0.083 Cl
ATOM     17  Cl  UNL     1      55.999  37.192  21.487  1.00  0.00    -0.083 Cl
ENDBRANCH   7  10
ENDBRANCH   5   6
BRANCH   5  18
ATOM     18  C   UNL     1      51.245  30.794  18.266  1.00  0.00     0.015 C 
ATOM     19  C   UNL     1      52.057  30.895  16.968  1.00  0.00     0.010 C 
ATOM     20  C   UNL     1      50.601  29.402  18.358  1.00  0.00     0.010 C 
ENDBRANCH   5  18
ENDBRANCH   2   5
BRANCH   1  21
ATOM     21  C   UNL     1      46.954  32.486  16.804  1.00  0.00     0.193 C 
BRANCH  21  22
ATOM     22  C   UNL     1      47.051  33.783  16.005  1.00  0.00     0.029 C 
BRANCH  22  23
ATOM     23  C   UNL     1      45.692  34.452  15.735  1.00  0.00    -0.016 C 
ATOM     24  C   UNL     1      45.157  33.948  14.394  1.00  0.00     0.007 C 
ATOM     25  C   UNL     1      44.682  34.227  16.858  1.00  0.00     0.007 C 
ENDBRANCH  22  23
ENDBRANCH  21  22
BRANCH  21  26
ATOM     26  P   UNL     1      47.217  30.946  15.853  1.00  0.00     0.337 P 
ATOM     27  O   UNL     1      48.283  31.184  14.819  1.00  0.00    -0.260 OA
BRANCH  26  28
ATOM     28  O   UNL     1      47.509  29.853  16.826  1.00  0.00    -0.324 OA
ATOM     29  H   UNL     1      47.642  29.003  16.336  1.00  0.00     0.221 HD
ENDBRANCH  26  28
BRANCH  26  30
ATOM     30  O   UNL     1      45.885  30.584  15.238  1.00  0.00    -0.324 OA
ATOM     31  H   UNL     1      45.592  29.702  15.581  1.00  0.00     0.221 HD
ENDBRANCH  26  30
ENDBRANCH  21  26
ENDBRANCH   1  21
TORSDOF 10
ENDMDL
MODEL 10
REMARK VINA RESULT:    -6.509      8.760     11.044
REMARK INTER + INTRA:         -11.271
REMARK INTER:                  -9.919
REMARK INTRA:                  -1.352
REMARK UNBOUND:                -1.337
REMARK SMILES CC(C)C[C@H](C(=O)N[C@H](C(=O)Nc1ccc(Cl)c(Cl)c1)C(C)C)P(=O)(O)O
REMARK SMILES IDX 6 1 8 2 7 3 9 5 10 6 12 7 11 8 13 10 20 11 14 12 18 13 15 14
REMARK SMILES IDX 16 15 19 16 17 17 21 18 22 19 23 20 5 21 4 22 2 23 1 24 3 25
REMARK SMILES IDX 24 26 25 27 27 28 26 30
REMARK H PARENT 8 4 12 9 27 29 26 31
ROOT
ATOM      1  C   UNL     1      47.030  31.729  16.382  1.00  0.00     0.235 C 
ATOM      2  N   UNL     1      48.232  31.671  15.588  1.00  0.00    -0.343 N 
ATOM      3  O   UNL     1      46.237  30.829  16.482  1.00  0.00    -0.274 OA
ATOM      4  H   UNL     1      48.899  32.455  15.612  1.00  0.00     0.164 HD
ENDROOT
BRANCH   2   5
ATOM      5  C   UNL     1      48.508  30.532  14.767  1.00  0.00     0.174 C 
BRANCH   5   6
ATOM      6  C   UNL     1      49.208  29.385  15.416  1.00  0.00     0.247 C 
ATOM      7  N   UNL     1      49.861  29.721  16.651  1.00  0.00    -0.324 N 
ATOM      8  O   UNL     1      49.121  28.312  14.918  1.00  0.00    -0.272 OA
ATOM      9  H   UNL     1      49.822  30.702  16.965  1.00  0.00     0.170 HD
BRANCH   7  10
ATOM     10  C   UNL     1      50.569  28.775  17.481  1.00  0.00     0.042 A 
ATOM     11  C   UNL     1      51.897  28.454  17.286  1.00  0.00     0.048 A 
ATOM     12  C   UNL     1      49.824  28.160  18.469  1.00  0.00     0.028 A 
ATOM     13  C   UNL     1      52.478  27.522  18.132  1.00  0.00     0.061 A 
ATOM     14  C   UNL     1      50.397  27.233  19.302  1.00  0.00     0.024 A 
ATOM     15  C   UNL     1      51.722  26.918  19.139  1.00  0.00     0.059 A 
ATOM     16  Cl  UNL     1      54.202  27.123  17.904  1.00  0.00    -0.083 Cl
ATOM     17  Cl  UNL     1      52.363  25.706  20.273  1.00  0.00    -0.083 Cl
ENDBRANCH   7  10
ENDBRANCH   5   6
BRANCH   5  18
ATOM     18  C   UNL     1      49.268  30.933  13.485  1.00  0.00     0.015 C 
ATOM     19  C   UNL     1      50.689  31.485  13.666  1.00  0.00     0.010 C 
ATOM     20  C   UNL     1      48.479  31.854  12.541  1.00  0.00     0.010 C 
ENDBRANCH   5  18
ENDBRANCH   2   5
BRANCH   1  21
ATOM     21  C   UNL     1      46.856  33.051  17.103  1.00  0.00     0.193 C 
BRANCH  21  22
ATOM     22  C   UNL     1      48.145  33.862  16.984  1.00  0.00     0.029 C 
BRANCH  22  23
ATOM     23  C   UNL     1      49.069  33.747  18.209  1.00  0.00    -0.016 C 
ATOM     24  C   UNL     1      48.352  32.931  19.286  1.00  0.00     0.007 C 
ATOM     25  C   UNL     1      50.434  33.150  17.874  1.00  0.00     0.007 C 
ENDBRANCH  22  23
ENDBRANCH  21  22
BRANCH  21  26
ATOM     26  P   UNL     1      45.342  33.875  16.491  1.00  0.00     0.337 P 
ATOM     27  O   UNL     1      45.580  35.359  16.432  1.00  0.00    -0.260 OA
BRANCH  26  28
ATOM     28  O   UNL     1      44.970  33.240  15.193  1.00  0.00    -0.324 OA
ATOM     29  H   UNL     1      45.788  32.925  14.734  1.00  0.00     0.221 HD
ENDBRANCH  26  28
BRANCH  26  30
ATOM     30  O   UNL     1      44.231  33.505  17.446  1.00  0.00    -0.324 OA
ATOM     31  H   UNL     1      44.530  32.761  18.027  1.00  0.00     0.221 HD
ENDBRANCH  26  30
ENDBRANCH  21  26
ENDBRANCH   1  21
TORSDOF 10
ENDMDL
MODEL 11
REMARK VINA RESULT:    -6.457      3.286      5.163
REMARK INTER + INTRA:         -11.192
REMARK INTER:                 -10.159
REMARK INTRA:                  -1.033
REMARK UNBOUND:                -1.337
REMARK SMILES CC(C)C[C@H](C(=O)N[C@H](C(=O)Nc1ccc(Cl)c(Cl)c1)C(C)C)P(=O)(O)O
REMARK SMILES IDX 6 1 8 2 7 3 9 5 10 6 12 7 11 8 13 10 20 11 14 12 18 13 15 14
REMARK SMILES IDX 16 15 19 16 17 17 21 18 22 19 23 20 5 21 4 22 2 23 1 24 3 25
REMARK SMILES IDX 24 26 25 27 27 28 26 30
REMARK H PARENT 8 4 12 9 27 29 26 31
ROOT
ATOM      1  C   UNL     1      54.800  37.309  22.478  1.00  0.00     0.235 C 
ATOM      2  N   UNL     1      55.915  36.403  22.348  1.00  0.00    -0.343 N 
ATOM      3  O   UNL     1      54.855  38.491  22.253  1.00  0.00    -0.274 OA
ATOM      4  H   UNL     1      55.770  35.393  22.486  1.00  0.00     0.164 HD
ENDROOT
BRANCH   2   5
ATOM      5  C   UNL     1      57.219  36.895  22.030  1.00  0.00     0.174 C 
BRANCH   5   6
ATOM      6  C   UNL     1      57.765  36.543  20.685  1.00  0.00     0.247 C 
ATOM      7  N   UNL     1      57.865  37.658  19.785  1.00  0.00    -0.324 N 
ATOM      8  O   UNL     1      58.121  35.429  20.492  1.00  0.00    -0.272 OA
ATOM      9  H   UNL     1      57.535  38.575  20.116  1.00  0.00     0.170 HD
BRANCH   7  10
ATOM     10  C   UNL     1      58.399  37.576  18.446  1.00  0.00     0.042 A 
ATOM     11  C   UNL     1      58.216  36.476  17.632  1.00  0.00     0.048 A 
ATOM     12  C   UNL     1      59.157  38.653  18.028  1.00  0.00     0.028 A 
ATOM     13  C   UNL     1      58.782  36.494  16.367  1.00  0.00     0.061 A 
ATOM     14  C   UNL     1      59.723  38.668  16.779  1.00  0.00     0.024 A 
ATOM     15  C   UNL     1      59.532  37.594  15.947  1.00  0.00     0.059 A 
ATOM     16  Cl  UNL     1      58.526  35.088  15.299  1.00  0.00    -0.083 Cl
ATOM     17  Cl  UNL     1      60.310  37.719  14.351  1.00  0.00    -0.083 Cl
ENDBRANCH   7  10
ENDBRANCH   5   6
BRANCH   5  18
ATOM     18  C   UNL     1      58.247  36.508  23.114  1.00  0.00     0.015 C 
ATOM     19  C   UNL     1      57.740  36.455  24.561  1.00  0.00     0.010 C 
ATOM     20  C   UNL     1      59.558  37.308  23.061  1.00  0.00     0.010 C 
ENDBRANCH   5  18
ENDBRANCH   2   5
BRANCH   1  21
ATOM     21  C   UNL     1      53.523  36.623  22.921  1.00  0.00     0.193 C 
BRANCH  21  22
ATOM     22  C   UNL     1      53.426  35.257  22.245  1.00  0.00     0.029 C 
BRANCH  22  23
ATOM     23  C   UNL     1      52.864  35.308  20.814  1.00  0.00    -0.016 C 
ATOM     24  C   UNL     1      53.661  34.337  19.942  1.00  0.00     0.007 C 
ATOM     25  C   UNL     1      51.367  35.016  20.749  1.00  0.00     0.007 C 
ENDBRANCH  22  23
ENDBRANCH  21  22
BRANCH  21  26
ATOM     26  P   UNL     1      53.450  36.611  24.749  1.00  0.00     0.337 P 
ATOM     27  O   UNL     1      53.983  35.297  25.252  1.00  0.00    -0.260 OA
BRANCH  26  28
ATOM     28  O   UNL     1      54.173  37.819  25.242  1.00  0.00    -0.324 OA
ATOM     29  H   UNL     1      54.979  37.539  25.745  1.00  0.00     0.221 HD
ENDBRANCH  26  28
BRANCH  26  30
ATOM     30  O   UNL     1      52.005  36.832  25.127  1.00  0.00    -0.324 OA
ATOM     31  H   UNL     1      51.955  37.468  25.884  1.00  0.00     0.221 HD
ENDBRANCH  26  30
ENDBRANCH  21  26
ENDBRANCH   1  21
TORSDOF 10
ENDMDL
MODEL 12
REMARK VINA RESULT:    -6.423      7.682     11.372
REMARK INTER + INTRA:         -11.140
REMARK INTER:                 -10.011
REMARK INTRA:                  -1.129
REMARK UNBOUND:                -1.337
REMARK SMILES CC(C)C[C@H](C(=O)N[C@H](C(=O)Nc1ccc(Cl)c(Cl)c1)C(C)C)P(=O)(O)O
REMARK SMILES IDX 6 1 8 2 7 3 9 5 10 6 12 7 11 8 13 10 20 11 14 12 18 13 15 14
REMARK SMILES IDX 16 15 19 16 17 17 21 18 22 19 23 20 5 21 4 22 2 23 1 24 3 25
REMARK SMILES IDX 24 26 25 27 27 28 26 30
REMARK H PARENT 8 4 12 9 27 29 26 31
ROOT
ATOM      1  C   UNL     1      49.736  32.760  18.732  1.00  0.00     0.235 C 
ATOM      2  N   UNL     1      49.261  32.492  17.396  1.00  0.00    -0.343 N 
ATOM      3  O   UNL     1      49.024  32.866  19.697  1.00  0.00    -0.274 OA
ATOM      4  H   UNL     1      49.937  32.341  16.634  1.00  0.00     0.164 HD
ENDROOT
BRANCH   2   5
ATOM      5  C   UNL     1      47.859  32.434  17.119  1.00  0.00     0.174 C 
BRANCH   5   6
ATOM      6  C   UNL     1      47.297  31.102  16.750  1.00  0.00     0.247 C 
ATOM      7  N   UNL     1      48.293  30.099  16.489  1.00  0.00    -0.324 N 
ATOM      8  O   UNL     1      46.121  30.959  16.762  1.00  0.00    -0.272 OA
ATOM      9  H   UNL     1      49.283  30.378  16.546  1.00  0.00     0.170 HD
BRANCH   7  10
ATOM     10  C   UNL     1      47.998  28.726  16.154  1.00  0.00     0.042 A 
ATOM     11  C   UNL     1      48.441  27.659  16.909  1.00  0.00     0.048 A 
ATOM     12  C   UNL     1      47.277  28.528  14.992  1.00  0.00     0.028 A 
ATOM     13  C   UNL     1      48.112  26.378  16.491  1.00  0.00     0.061 A 
ATOM     14  C   UNL     1      46.957  27.261  14.575  1.00  0.00     0.024 A 
ATOM     15  C   UNL     1      47.368  26.188  15.325  1.00  0.00     0.059 A 
ATOM     16  Cl  UNL     1      48.656  24.995  17.476  1.00  0.00    -0.083 Cl
ATOM     17  Cl  UNL     1      46.899  24.592  14.693  1.00  0.00    -0.083 Cl
ENDBRANCH   7  10
ENDBRANCH   5   6
BRANCH   5  18
ATOM     18  C   UNL     1      47.452  33.472  16.052  1.00  0.00     0.015 C 
ATOM     19  C   UNL     1      46.363  34.479  16.446  1.00  0.00     0.010 C 
ATOM     20  C   UNL     1      47.120  32.873  14.677  1.00  0.00     0.010 C 
ENDBRANCH   5  18
ENDBRANCH   2   5
BRANCH   1  21
ATOM     21  C   UNL     1      51.244  32.888  18.813  1.00  0.00     0.193 C 
BRANCH  21  22
ATOM     22  C   UNL     1      51.831  32.815  17.405  1.00  0.00     0.029 C 
BRANCH  22  23
ATOM     23  C   UNL     1      52.763  31.612  17.179  1.00  0.00    -0.016 C 
ATOM     24  C   UNL     1      54.008  31.789  18.048  1.00  0.00     0.007 C 
ATOM     25  C   UNL     1      52.082  30.272  17.448  1.00  0.00     0.007 C 
ENDBRANCH  22  23
ENDBRANCH  21  22
BRANCH  21  26
ATOM     26  P   UNL     1      51.669  34.385  19.774  1.00  0.00     0.337 P 
ATOM     27  O   UNL     1      53.132  34.682  19.595  1.00  0.00    -0.260 OA
BRANCH  26  28
ATOM     28  O   UNL     1      50.744  35.476  19.352  1.00  0.00    -0.324 OA
ATOM     29  H   UNL     1      51.182  36.030  18.657  1.00  0.00     0.221 HD
ENDBRANCH  26  28
BRANCH  26  30
ATOM     30  O   UNL     1      51.309  34.094  21.212  1.00  0.00    -0.324 OA
ATOM     31  H   UNL     1      51.447  34.908  21.758  1.00  0.00     0.221 HD
ENDBRANCH  26  30
ENDBRANCH  21  26
ENDBRANCH   1  21
TORSDOF 10
ENDMDL
MODEL 13
REMARK VINA RESULT:    -6.418      5.353      8.228
REMARK INTER + INTRA:         -11.132
REMARK INTER:                 -10.037
REMARK INTRA:                  -1.095
REMARK UNBOUND:                -1.337
REMARK SMILES CC(C)C[C@H](C(=O)N[C@H](C(=O)Nc1ccc(Cl)c(Cl)c1)C(C)C)P(=O)(O)O
REMARK SMILES IDX 6 1 8 2 7 3 9 5 10 6 12 7 11 8 13 10 20 11 14 12 18 13 15 14
REMARK SMILES IDX 16 15 19 16 17 17 21 18 22 19 23 20 5 21 4 22 2 23 1 24 3 25
REMARK SMILES IDX 24 26 25 27 27 28 26 30
REMARK H PARENT 8 4 12 9 27 29 26 31
ROOT
ATOM      1  C   UNL     1      47.404  32.836  16.680  1.00  0.00     0.235 C 
ATOM      2  N   UNL     1      48.662  32.209  16.355  1.00  0.00    -0.343 N 
ATOM      3  O   UNL     1      47.041  33.092  17.799  1.00  0.00    -0.274 OA
ATOM      4  H   UNL     1      48.933  32.091  15.369  1.00  0.00     0.164 HD
ENDROOT
BRANCH   2   5
ATOM      5  C   UNL     1      49.535  31.750  17.391  1.00  0.00     0.174 C 
BRANCH   5   6
ATOM      6  C   UNL     1      50.733  32.591  17.687  1.00  0.00     0.247 C 
ATOM      7  N   UNL     1      50.853  32.972  19.067  1.00  0.00    -0.324 N 
ATOM      8  O   UNL     1      51.498  32.817  16.810  1.00  0.00    -0.272 OA
ATOM      9  H   UNL     1      50.112  32.671  19.716  1.00  0.00     0.170 HD
BRANCH   7  10
ATOM     10  C   UNL     1      51.945  33.749  19.605  1.00  0.00     0.042 A 
ATOM     11  C   UNL     1      51.753  34.836  20.434  1.00  0.00     0.048 A 
ATOM     12  C   UNL     1      53.212  33.373  19.203  1.00  0.00     0.028 A 
ATOM     13  C   UNL     1      52.870  35.522  20.885  1.00  0.00     0.061 A 
ATOM     14  C   UNL     1      54.317  34.056  19.644  1.00  0.00     0.024 A 
ATOM     15  C   UNL     1      54.148  35.125  20.487  1.00  0.00     0.059 A 
ATOM     16  Cl  UNL     1      52.633  36.911  21.979  1.00  0.00    -0.083 Cl
ATOM     17  Cl  UNL     1      55.647  35.937  20.998  1.00  0.00    -0.083 Cl
ENDBRANCH   7  10
ENDBRANCH   5   6
BRANCH   5  18
ATOM     18  C   UNL     1      49.984  30.294  17.145  1.00  0.00     0.015 C 
ATOM     19  C   UNL     1      49.070  29.427  16.268  1.00  0.00     0.010 C 
ATOM     20  C   UNL     1      50.354  29.520  18.419  1.00  0.00     0.010 C 
ENDBRANCH   5  18
ENDBRANCH   2   5
BRANCH   1  21
ATOM     21  C   UNL     1      46.567  33.160  15.459  1.00  0.00     0.193 C 
BRANCH  21  22
ATOM     22  C   UNL     1      46.105  31.858  14.807  1.00  0.00     0.029 C 
BRANCH  22  23
ATOM     23  C   UNL     1      46.552  31.701  13.343  1.00  0.00    -0.016 C 
ATOM     24  C   UNL     1      45.662  32.579  12.463  1.00  0.00     0.007 C 
ATOM     25  C   UNL     1      48.031  32.019  13.134  1.00  0.00     0.007 C 
ENDBRANCH  22  23
ENDBRANCH  21  22
BRANCH  21  26
ATOM     26  P   UNL     1      45.240  34.326  15.931  1.00  0.00     0.337 P 
ATOM     27  O   UNL     1      44.505  34.759  14.692  1.00  0.00    -0.260 OA
BRANCH  26  28
ATOM     28  O   UNL     1      44.398  33.663  16.969  1.00  0.00    -0.324 OA
ATOM     29  H   UNL     1      43.998  32.840  16.592  1.00  0.00     0.221 HD
ENDBRANCH  26  28
BRANCH  26  30
ATOM     30  O   UNL     1      45.908  35.480  16.640  1.00  0.00    -0.324 OA
ATOM     31  H   UNL     1      46.226  36.139  15.973  1.00  0.00     0.221 HD
ENDBRANCH  26  30
ENDBRANCH  21  26
ENDBRANCH   1  21
TORSDOF 10
ENDMDL
MODEL 14
REMARK VINA RESULT:    -6.359      5.958      9.264
REMARK INTER + INTRA:         -11.042
REMARK INTER:                  -9.741
REMARK INTRA:                  -1.302
REMARK UNBOUND:                -1.337
REMARK SMILES CC(C)C[C@H](C(=O)N[C@H](C(=O)Nc1ccc(Cl)c(Cl)c1)C(C)C)P(=O)(O)O
REMARK SMILES IDX 6 1 8 2 7 3 9 5 10 6 12 7 11 8 13 10 20 11 14 12 18 13 15 14
REMARK SMILES IDX 16 15 19 16 17 17 21 18 22 19 23 20 5 21 4 22 2 23 1 24 3 25
REMARK SMILES IDX 24 26 25 27 27 28 26 30
REMARK H PARENT 8 4 12 9 27 29 26 31
ROOT
ATOM      1  C   UNL     1      47.025  32.769  16.063  1.00  0.00     0.235 C 
ATOM      2  N   UNL     1      48.126  32.088  15.426  1.00  0.00    -0.343 N 
ATOM      3  O   UNL     1      46.862  32.832  17.254  1.00  0.00    -0.274 OA
ATOM      4  H   UNL     1      48.237  32.142  14.404  1.00  0.00     0.164 HD
ENDROOT
BRANCH   2   5
ATOM      5  C   UNL     1      49.065  31.339  16.202  1.00  0.00     0.174 C 
BRANCH   5   6
ATOM      6  C   UNL     1      50.237  32.083  16.749  1.00  0.00     0.247 C 
ATOM      7  N   UNL     1      50.004  32.674  18.038  1.00  0.00    -0.324 N 
ATOM      8  O   UNL     1      51.251  32.076  16.135  1.00  0.00    -0.272 OA
ATOM      9  H   UNL     1      49.068  32.567  18.455  1.00  0.00     0.170 HD
BRANCH   7  10
ATOM     10  C   UNL     1      50.997  33.408  18.788  1.00  0.00     0.042 A 
ATOM     11  C   UNL     1      52.344  33.366  18.488  1.00  0.00     0.048 A 
ATOM     12  C   UNL     1      50.529  34.129  19.869  1.00  0.00     0.028 A 
ATOM     13  C   UNL     1      53.215  34.098  19.279  1.00  0.00     0.061 A 
ATOM     14  C   UNL     1      51.392  34.848  20.657  1.00  0.00     0.024 A 
ATOM     15  C   UNL     1      52.731  34.838  20.360  1.00  0.00     0.059 A 
ATOM     16  Cl  UNL     1      54.954  34.072  18.881  1.00  0.00    -0.083 Cl
ATOM     17  Cl  UNL     1      53.759  35.804  21.445  1.00  0.00    -0.083 Cl
ENDBRANCH   7  10
ENDBRANCH   5   6
BRANCH   5  18
ATOM     18  C   UNL     1      49.564  30.096  15.435  1.00  0.00     0.015 C 
ATOM     19  C   UNL     1      48.926  29.825  14.065  1.00  0.00     0.010 C 
ATOM     20  C   UNL     1      49.570  28.800  16.260  1.00  0.00     0.010 C 
ENDBRANCH   5  18
ENDBRANCH   2   5
BRANCH   1  21
ATOM     21  C   UNL     1      46.077  33.421  15.076  1.00  0.00     0.193 C 
BRANCH  21  22
ATOM     22  C   UNL     1      45.496  32.350  14.155  1.00  0.00     0.029 C 
BRANCH  22  23
ATOM     23  C   UNL     1      45.476  32.750  12.669  1.00  0.00    -0.016 C 
ATOM     24  C   UNL     1      46.687  32.122  11.978  1.00  0.00     0.007 C 
ATOM     25  C   UNL     1      44.175  32.371  11.966  1.00  0.00     0.007 C 
ENDBRANCH  22  23
ENDBRANCH  21  22
BRANCH  21  26
ATOM     26  P   UNL     1      44.855  34.429  15.991  1.00  0.00     0.337 P 
ATOM     27  O   UNL     1      43.872  35.013  15.014  1.00  0.00    -0.260 OA
BRANCH  26  28
ATOM     28  O   UNL     1      44.259  33.569  17.054  1.00  0.00    -0.324 OA
ATOM     29  H   UNL     1      43.573  32.978  16.654  1.00  0.00     0.221 HD
ENDBRANCH  26  28
BRANCH  26  30
ATOM     30  O   UNL     1      45.636  35.490  16.731  1.00  0.00    -0.324 OA
ATOM     31  H   UNL     1      46.605  35.341  16.595  1.00  0.00     0.221 HD
ENDBRANCH  26  30
ENDBRANCH  21  26
ENDBRANCH   1  21
TORSDOF 10
ENDMDL
MODEL 15
REMARK VINA RESULT:    -6.197      7.133     10.287
REMARK INTER + INTRA:         -10.795
REMARK INTER:                  -9.869
REMARK INTRA:                  -0.926
REMARK UNBOUND:                -1.337
REMARK SMILES CC(C)C[C@H](C(=O)N[C@H](C(=O)Nc1ccc(Cl)c(Cl)c1)C(C)C)P(=O)(O)O
REMARK SMILES IDX 6 1 8 2 7 3 9 5 10 6 12 7 11 8 13 10 20 11 14 12 18 13 15 14
REMARK SMILES IDX 16 15 19 16 17 17 21 18 22 19 23 20 5 21 4 22 2 23 1 24 3 25
REMARK SMILES IDX 24 26 25 27 27 28 26 30
REMARK H PARENT 8 4 12 9 27 29 26 31
ROOT
ATOM      1  C   UNL     1      46.708  32.511  15.055  1.00  0.00     0.235 C 
ATOM      2  N   UNL     1      46.310  31.438  15.933  1.00  0.00    -0.343 N 
ATOM      3  O   UNL     1      47.705  32.504  14.381  1.00  0.00    -0.274 OA
ATOM      4  H   UNL     1      45.404  31.486  16.421  1.00  0.00     0.164 HD
ENDROOT
BRANCH   2   5
ATOM      5  C   UNL     1      47.162  30.306  16.131  1.00  0.00     0.174 C 
BRANCH   5   6
ATOM      6  C   UNL     1      48.588  30.585  16.473  1.00  0.00     0.247 C 
ATOM      7  N   UNL     1      48.765  31.665  17.405  1.00  0.00    -0.324 N 
ATOM      8  O   UNL     1      49.428  29.882  16.021  1.00  0.00    -0.272 OA
ATOM      9  H   UNL     1      47.924  32.165  17.728  1.00  0.00     0.170 HD
BRANCH   7  10
ATOM     10  C   UNL     1      50.044  32.096  17.918  1.00  0.00     0.042 A 
ATOM     11  C   UNL     1      51.066  32.542  17.103  1.00  0.00     0.048 A 
ATOM     12  C   UNL     1      50.216  31.991  19.284  1.00  0.00     0.028 A 
ATOM     13  C   UNL     1      52.260  32.921  17.696  1.00  0.00     0.061 A 
ATOM     14  C   UNL     1      51.400  32.359  19.871  1.00  0.00     0.024 A 
ATOM     15  C   UNL     1      52.419  32.828  19.080  1.00  0.00     0.059 A 
ATOM     16  Cl  UNL     1      53.575  33.526  16.654  1.00  0.00    -0.083 Cl
ATOM     17  Cl  UNL     1      53.909  33.276  19.944  1.00  0.00    -0.083 Cl
ENDBRANCH   7  10
ENDBRANCH   5   6
BRANCH   5  18
ATOM     18  C   UNL     1      47.107  29.342  14.927  1.00  0.00     0.015 C 
ATOM     19  C   UNL     1      45.896  29.470  13.993  1.00  0.00     0.010 C 
ATOM     20  C   UNL     1      47.319  27.864  15.287  1.00  0.00     0.010 C 
ENDBRANCH   5  18
ENDBRANCH   2   5
BRANCH   1  21
ATOM     21  C   UNL     1      45.731  33.670  15.051  1.00  0.00     0.193 C 
BRANCH  21  22
ATOM     22  C   UNL     1      44.518  33.302  14.199  1.00  0.00     0.029 C 
BRANCH  22  23
ATOM     23  C   UNL     1      44.770  33.387  12.684  1.00  0.00    -0.016 C 
ATOM     24  C   UNL     1      44.504  32.014  12.067  1.00  0.00     0.007 C 
ATOM     25  C   UNL     1      43.945  34.475  12.001  1.00  0.00     0.007 C 
ENDBRANCH  22  23
ENDBRANCH  21  22
BRANCH  21  26
ATOM     26  P   UNL     1      45.370  34.159  16.776  1.00  0.00     0.337 P 
ATOM     27  O   UNL     1      46.574  33.871  17.629  1.00  0.00    -0.260 OA
BRANCH  26  28
ATOM     28  O   UNL     1      44.928  35.584  16.763  1.00  0.00    -0.324 OA
ATOM     29  H   UNL     1      44.766  35.887  17.691  1.00  0.00     0.221 HD
ENDBRANCH  26  28
BRANCH  26  30
ATOM     30  O   UNL     1      44.155  33.371  17.205  1.00  0.00    -0.324 OA
ATOM     31  H   UNL     1      43.636  33.103  16.405  1.00  0.00     0.221 HD
ENDBRANCH  26  30
ENDBRANCH  21  26
ENDBRANCH   1  21
TORSDOF 10
ENDMDL
MODEL 16
REMARK VINA RESULT:    -6.194      4.503      8.275
REMARK INTER + INTRA:         -10.790
REMARK INTER:                  -9.383
REMARK INTRA:                  -1.407
REMARK UNBOUND:                -1.337
REMARK SMILES CC(C)C[C@H](C(=O)N[C@H](C(=O)Nc1ccc(Cl)c(Cl)c1)C(C)C)P(=O)(O)O
REMARK SMILES IDX 6 1 8 2 7 3 9 5 10 6 12 7 11 8 13 10 20 11 14 12 18 13 15 14
REMARK SMILES IDX 16 15 19 16 17 17 21 18 22 19 23 20 5 21 4 22 2 23 1 24 3 25
REMARK SMILES IDX 24 26 25 27 27 28 26 30
REMARK H PARENT 8 4 12 9 27 29 26 31
ROOT
ATOM      1  C   UNL     1      54.426  35.970  21.125  1.00  0.00     0.235 C 
ATOM      2  N   UNL     1      55.570  35.388  20.466  1.00  0.00    -0.343 N 
ATOM      3  O   UNL     1      53.296  35.893  20.720  1.00  0.00    -0.274 OA
ATOM      4  H   UNL     1      56.496  35.433  20.914  1.00  0.00     0.164 HD
ENDROOT
BRANCH   2   5
ATOM      5  C   UNL     1      55.429  34.748  19.195  1.00  0.00     0.174 C 
BRANCH   5   6
ATOM      6  C   UNL     1      54.360  33.713  19.074  1.00  0.00     0.247 C 
ATOM      7  N   UNL     1      53.286  34.082  18.193  1.00  0.00    -0.324 N 
ATOM      8  O   UNL     1      54.504  32.681  19.639  1.00  0.00    -0.272 OA
ATOM      9  H   UNL     1      53.322  35.012  17.754  1.00  0.00     0.170 HD
BRANCH   7  10
ATOM     10  C   UNL     1      52.160  33.232  17.884  1.00  0.00     0.042 A 
ATOM     11  C   UNL     1      50.902  33.432  18.418  1.00  0.00     0.048 A 
ATOM     12  C   UNL     1      52.418  32.163  17.049  1.00  0.00     0.028 A 
ATOM     13  C   UNL     1      49.892  32.550  18.065  1.00  0.00     0.061 A 
ATOM     14  C   UNL     1      51.420  31.286  16.705  1.00  0.00     0.024 A 
ATOM     15  C   UNL     1      50.159  31.482  17.207  1.00  0.00     0.059 A 
ATOM     16  Cl  UNL     1      48.258  32.818  18.729  1.00  0.00    -0.083 Cl
ATOM     17  Cl  UNL     1      48.942  30.287  16.697  1.00  0.00    -0.083 Cl
ENDBRANCH   7  10
ENDBRANCH   5   6
BRANCH   5  18
ATOM     18  C   UNL     1      56.769  34.154  18.711  1.00  0.00     0.015 C 
ATOM     19  C   UNL     1      58.012  35.042  18.859  1.00  0.00     0.010 C 
ATOM     20  C   UNL     1      56.728  33.565  17.293  1.00  0.00     0.010 C 
ENDBRANCH   5  18
ENDBRANCH   2   5
BRANCH   1  21
ATOM     21  C   UNL     1      54.784  36.695  22.408  1.00  0.00     0.193 C 
BRANCH  21  22
ATOM     22  C   UNL     1      56.084  37.471  22.201  1.00  0.00     0.029 C 
BRANCH  22  23
ATOM     23  C   UNL     1      57.195  37.104  23.201  1.00  0.00    -0.016 C 
ATOM     24  C   UNL     1      56.556  36.430  24.415  1.00  0.00     0.007 C 
ATOM     25  C   UNL     1      58.285  36.228  22.587  1.00  0.00     0.007 C 
ENDBRANCH  22  23
ENDBRANCH  21  22
BRANCH  21  26
ATOM     26  P   UNL     1      53.349  37.684  22.961  1.00  0.00     0.337 P 
ATOM     27  O   UNL     1      53.748  38.501  24.159  1.00  0.00    -0.260 OA
BRANCH  26  28
ATOM     28  O   UNL     1      52.860  38.471  21.791  1.00  0.00    -0.324 OA
ATOM     29  H   UNL     1      51.870  38.462  21.778  1.00  0.00     0.221 HD
ENDBRANCH  26  28
BRANCH  26  30
ATOM     30  O   UNL     1      52.241  36.705  23.271  1.00  0.00    -0.324 OA
ATOM     31  H   UNL     1      52.631  35.870  23.634  1.00  0.00     0.221 HD
ENDBRANCH  26  30
ENDBRANCH  21  26
ENDBRANCH   1  21
TORSDOF 10
ENDMDL
MODEL 17
REMARK VINA RESULT:    -6.162      7.313     10.101
REMARK INTER + INTRA:         -10.741
REMARK INTER:                  -9.165
REMARK INTRA:                  -1.576
REMARK UNBOUND:                -1.337
REMARK SMILES CC(C)C[C@H](C(=O)N[C@H](C(=O)Nc1ccc(Cl)c(Cl)c1)C(C)C)P(=O)(O)O
REMARK SMILES IDX 6 1 8 2 7 3 9 5 10 6 12 7 11 8 13 10 20 11 14 12 18 13 15 14
REMARK SMILES IDX 16 15 19 16 17 17 21 18 22 19 23 20 5 21 4 22 2 23 1 24 3 25
REMARK SMILES IDX 24 26 25 27 27 28 26 30
REMARK H PARENT 8 4 12 9 27 29 26 31
ROOT
ATOM      1  C   UNL     1      51.132  30.207  18.234  1.00  0.00     0.235 C 
ATOM      2  N   UNL     1      51.338  31.632  18.132  1.00  0.00    -0.343 N 
ATOM      3  O   UNL     1      50.275  29.691  18.904  1.00  0.00    -0.274 OA
ATOM      4  H   UNL     1      52.045  31.999  17.480  1.00  0.00     0.164 HD
ENDROOT
BRANCH   2   5
ATOM      5  C   UNL     1      50.568  32.537  18.927  1.00  0.00     0.174 C 
BRANCH   5   6
ATOM      6  C   UNL     1      49.180  32.832  18.463  1.00  0.00     0.247 C 
ATOM      7  N   UNL     1      49.062  33.002  17.042  1.00  0.00    -0.324 N 
ATOM      8  O   UNL     1      48.305  32.837  19.263  1.00  0.00    -0.272 OA
ATOM      9  H   UNL     1      49.921  32.940  16.476  1.00  0.00     0.170 HD
BRANCH   7  10
ATOM     10  C   UNL     1      47.818  33.253  16.353  1.00  0.00     0.042 A 
ATOM     11  C   UNL     1      47.348  32.445  15.336  1.00  0.00     0.048 A 
ATOM     12  C   UNL     1      47.133  34.390  16.734  1.00  0.00     0.028 A 
ATOM     13  C   UNL     1      46.148  32.783  14.732  1.00  0.00     0.061 A 
ATOM     14  C   UNL     1      45.948  34.728  16.131  1.00  0.00     0.024 A 
ATOM     15  C   UNL     1      45.453  33.925  15.136  1.00  0.00     0.059 A 
ATOM     16  Cl  UNL     1      45.519  31.728  13.438  1.00  0.00    -0.083 Cl
ATOM     17  Cl  UNL     1      43.911  34.456  14.423  1.00  0.00    -0.083 Cl
ENDBRANCH   7  10
ENDBRANCH   5   6
BRANCH   5  18
ATOM     18  C   UNL     1      51.321  33.865  19.156  1.00  0.00     0.015 C 
ATOM     19  C   UNL     1      52.771  33.933  18.658  1.00  0.00     0.010 C 
ATOM     20  C   UNL     1      51.249  34.396  20.595  1.00  0.00     0.010 C 
ENDBRANCH   5  18
ENDBRANCH   2   5
BRANCH   1  21
ATOM     21  C   UNL     1      52.107  29.403  17.398  1.00  0.00     0.193 C 
BRANCH  21  22
ATOM     22  C   UNL     1      51.691  27.934  17.414  1.00  0.00     0.029 C 
BRANCH  22  23
ATOM     23  C   UNL     1      52.575  27.045  18.306  1.00  0.00    -0.016 C 
ATOM     24  C   UNL     1      51.716  26.481  19.438  1.00  0.00     0.007 C 
ATOM     25  C   UNL     1      53.276  25.931  17.531  1.00  0.00     0.007 C 
ENDBRANCH  22  23
ENDBRANCH  21  22
BRANCH  21  26
ATOM     26  P   UNL     1      52.254  30.168  15.743  1.00  0.00     0.337 P 
ATOM     27  O   UNL     1      53.348  31.200  15.775  1.00  0.00    -0.260 OA
BRANCH  26  28
ATOM     28  O   UNL     1      52.444  29.072  14.749  1.00  0.00    -0.324 OA
ATOM     29  H   UNL     1      52.103  28.222  15.126  1.00  0.00     0.221 HD
ENDBRANCH  26  28
BRANCH  26  30
ATOM     30  O   UNL     1      50.904  30.765  15.420  1.00  0.00    -0.324 OA
ATOM     31  H   UNL     1      50.665  31.432  16.112  1.00  0.00     0.221 HD
ENDBRANCH  26  30
ENDBRANCH  21  26
ENDBRANCH   1  21
TORSDOF 10
ENDMDL
MODEL 18
REMARK VINA RESULT:    -6.110      6.208      8.535
REMARK INTER + INTRA:         -10.663
REMARK INTER:                  -9.144
REMARK INTRA:                  -1.519
REMARK UNBOUND:                -1.337
REMARK SMILES CC(C)C[C@H](C(=O)N[C@H](C(=O)Nc1ccc(Cl)c(Cl)c1)C(C)C)P(=O)(O)O
REMARK SMILES IDX 6 1 8 2 7 3 9 5 10 6 12 7 11 8 13 10 20 11 14 12 18 13 15 14
REMARK SMILES IDX 16 15 19 16 17 17 21 18 22 19 23 20 5 21 4 22 2 23 1 24 3 25
REMARK SMILES IDX 24 26 25 27 27 28 26 30
REMARK H PARENT 8 4 12 9 27 29 26 31
ROOT
ATOM      1  C   UNL     1      47.366  33.015  16.655  1.00  0.00     0.235 C 
ATOM      2  N   UNL     1      48.658  32.474  16.310  1.00  0.00    -0.343 N 
ATOM      3  O   UNL     1      46.987  33.205  17.782  1.00  0.00    -0.274 OA
ATOM      4  H   UNL     1      48.938  32.410  15.321  1.00  0.00     0.164 HD
ENDROOT
BRANCH   2   5
ATOM      5  C   UNL     1      49.555  32.025  17.330  1.00  0.00     0.174 C 
BRANCH   5   6
ATOM      6  C   UNL     1      50.811  32.809  17.519  1.00  0.00     0.247 C 
ATOM      7  N   UNL     1      51.940  32.286  16.801  1.00  0.00    -0.324 N 
ATOM      8  O   UNL     1      50.768  33.801  18.167  1.00  0.00    -0.272 OA
ATOM      9  H   UNL     1      51.806  31.422  16.256  1.00  0.00     0.170 HD
BRANCH   7  10
ATOM     10  C   UNL     1      53.251  32.892  16.794  1.00  0.00     0.042 A 
ATOM     11  C   UNL     1      53.754  33.575  15.704  1.00  0.00     0.048 A 
ATOM     12  C   UNL     1      54.010  32.710  17.933  1.00  0.00     0.028 A 
ATOM     13  C   UNL     1      55.030  34.108  15.796  1.00  0.00     0.061 A 
ATOM     14  C   UNL     1      55.276  33.232  18.022  1.00  0.00     0.024 A 
ATOM     15  C   UNL     1      55.784  33.934  16.959  1.00  0.00     0.059 A 
ATOM     16  Cl  UNL     1      55.677  35.016  14.403  1.00  0.00    -0.083 Cl
ATOM     17  Cl  UNL     1      57.432  34.566  17.181  1.00  0.00    -0.083 Cl
ENDBRANCH   7  10
ENDBRANCH   5   6
BRANCH   5  18
ATOM     18  C   UNL     1      49.908  30.533  17.153  1.00  0.00     0.015 C 
ATOM     19  C   UNL     1      48.880  29.661  16.419  1.00  0.00     0.010 C 
ATOM     20  C   UNL     1      50.349  29.827  18.444  1.00  0.00     0.010 C 
ENDBRANCH   5  18
ENDBRANCH   2   5
BRANCH   1  21
ATOM     21  C   UNL     1      46.514  33.338  15.444  1.00  0.00     0.193 C 
BRANCH  21  22
ATOM     22  C   UNL     1      46.158  32.042  14.719  1.00  0.00     0.029 C 
BRANCH  22  23
ATOM     23  C   UNL     1      46.334  32.113  13.192  1.00  0.00    -0.016 C 
ATOM     24  C   UNL     1      47.543  31.263  12.800  1.00  0.00     0.007 C 
ATOM     25  C   UNL     1      45.083  31.688  12.426  1.00  0.00     0.007 C 
ENDBRANCH  22  23
ENDBRANCH  21  22
BRANCH  21  26
ATOM     26  P   UNL     1      45.098  34.372  15.963  1.00  0.00     0.337 P 
ATOM     27  O   UNL     1      44.309  34.771  14.746  1.00  0.00    -0.260 OA
BRANCH  26  28
ATOM     28  O   UNL     1      44.332  33.612  16.994  1.00  0.00    -0.324 OA
ATOM     29  H   UNL     1      44.645  32.673  17.011  1.00  0.00     0.221 HD
ENDBRANCH  26  28
BRANCH  26  30
ATOM     30  O   UNL     1      45.674  35.562  16.695  1.00  0.00    -0.324 OA
ATOM     31  H   UNL     1      46.046  36.204  16.039  1.00  0.00     0.221 HD
ENDBRANCH  26  30
ENDBRANCH  21  26
ENDBRANCH   1  21
TORSDOF 10
ENDMDL
MODEL 19
REMARK VINA RESULT:    -6.003      6.502      8.500
REMARK INTER + INTRA:         -10.500
REMARK INTER:                  -8.890
REMARK INTRA:                  -1.609
REMARK UNBOUND:                -1.337
REMARK SMILES CC(C)C[C@H](C(=O)N[C@H](C(=O)Nc1ccc(Cl)c(Cl)c1)C(C)C)P(=O)(O)O
REMARK SMILES IDX 6 1 8 2 7 3 9 5 10 6 12 7 11 8 13 10 20 11 14 12 18 13 15 14
REMARK SMILES IDX 16 15 19 16 17 17 21 18 22 19 23 20 5 21 4 22 2 23 1 24 3 25
REMARK SMILES IDX 24 26 25 27 27 28 26 30
REMARK H PARENT 8 4 12 9 27 29 26 31
ROOT
ATOM      1  C   UNL     1      52.538  33.618  17.595  1.00  0.00     0.235 C 
ATOM      2  N   UNL     1      52.647  32.345  16.925  1.00  0.00    -0.343 N 
ATOM      3  O   UNL     1      53.313  34.529  17.454  1.00  0.00    -0.274 OA
ATOM      4  H   UNL     1      51.904  31.642  17.040  1.00  0.00     0.164 HD
ENDROOT
BRANCH   2   5
ATOM      5  C   UNL     1      53.779  32.051  16.101  1.00  0.00     0.174 C 
BRANCH   5   6
ATOM      6  C   UNL     1      53.733  32.538  14.691  1.00  0.00     0.247 C 
ATOM      7  N   UNL     1      54.253  33.866  14.514  1.00  0.00    -0.324 N 
ATOM      8  O   UNL     1      53.348  31.800  13.847  1.00  0.00    -0.272 OA
ATOM      9  H   UNL     1      54.577  34.372  15.351  1.00  0.00     0.170 HD
BRANCH   7  10
ATOM     10  C   UNL     1      54.352  34.539  13.240  1.00  0.00     0.042 A 
ATOM     11  C   UNL     1      55.365  34.284  12.336  1.00  0.00     0.048 A 
ATOM     12  C   UNL     1      53.394  35.500  12.986  1.00  0.00     0.028 A 
ATOM     13  C   UNL     1      55.374  34.995  11.146  1.00  0.00     0.061 A 
ATOM     14  C   UNL     1      53.408  36.208  11.811  1.00  0.00     0.024 A 
ATOM     15  C   UNL     1      54.392  35.953  10.890  1.00  0.00     0.059 A 
ATOM     16  Cl  UNL     1      56.663  34.652   9.960  1.00  0.00    -0.083 Cl
ATOM     17  Cl  UNL     1      54.315  36.927   9.403  1.00  0.00    -0.083 Cl
ENDBRANCH   7  10
ENDBRANCH   5   6
BRANCH   5  18
ATOM     18  C   UNL     1      54.103  30.542  16.108  1.00  0.00     0.015 C 
ATOM     19  C   UNL     1      53.078  29.617  16.778  1.00  0.00     0.010 C 
ATOM     20  C   UNL     1      55.511  30.197  16.616  1.00  0.00     0.010 C 
ENDBRANCH   5  18
ENDBRANCH   2   5
BRANCH   1  21
ATOM     21  C   UNL     1      51.329  33.710  18.505  1.00  0.00     0.193 C 
BRANCH  21  22
ATOM     22  C   UNL     1      50.639  32.349  18.563  1.00  0.00     0.029 C 
BRANCH  22  23
ATOM     23  C   UNL     1      49.225  32.340  17.957  1.00  0.00    -0.016 C 
ATOM     24  C   UNL     1      48.712  33.779  17.893  1.00  0.00     0.007 C 
ATOM     25  C   UNL     1      49.167  31.666  16.588  1.00  0.00     0.007 C 
ENDBRANCH  22  23
ENDBRANCH  21  22
BRANCH  21  26
ATOM     26  P   UNL     1      51.840  34.410  20.115  1.00  0.00     0.337 P 
ATOM     27  O   UNL     1      51.843  35.911  20.018  1.00  0.00    -0.260 OA
BRANCH  26  28
ATOM     28  O   UNL     1      50.943  33.844  21.164  1.00  0.00    -0.324 OA
ATOM     29  H   UNL     1      51.480  33.315  21.806  1.00  0.00     0.221 HD
ENDBRANCH  26  28
BRANCH  26  30
ATOM     30  O   UNL     1      53.209  33.847  20.418  1.00  0.00    -0.324 OA
ATOM     31  H   UNL     1      53.379  33.899  21.393  1.00  0.00     0.221 HD
ENDBRANCH  26  30
ENDBRANCH  21  26
ENDBRANCH   1  21
TORSDOF 10
ENDMDL
MODEL 20
REMARK VINA RESULT:    -5.977      3.197      5.036
REMARK INTER + INTRA:         -10.459
REMARK INTER:                  -9.137
REMARK INTRA:                  -1.322
REMARK UNBOUND:                -1.337
REMARK SMILES CC(C)C[C@H](C(=O)N[C@H](C(=O)Nc1ccc(Cl)c(Cl)c1)C(C)C)P(=O)(O)O
REMARK SMILES IDX 6 1 8 2 7 3 9 5 10 6 12 7 11 8 13 10 20 11 14 12 18 13 15 14
REMARK SMILES IDX 16 15 19 16 17 17 21 18 22 19 23 20 5 21 4 22 2 23 1 24 3 25
REMARK SMILES IDX 24 26 25 27 27 28 26 30
REMARK H PARENT 8 4 12 9 27 29 26 31
ROOT
ATOM      1  C   UNL     1      53.256  32.723  18.412  1.00  0.00     0.235 C 
ATOM      2  N   UNL     1      54.314  33.697  18.289  1.00  0.00    -0.343 N 
ATOM      3  O   UNL     1      53.401  31.539  18.253  1.00  0.00    -0.274 OA
ATOM      4  H   UNL     1      54.127  34.684  18.513  1.00  0.00     0.164 HD
ENDROOT
BRANCH   2   5
ATOM      5  C   UNL     1      55.619  33.302  17.858  1.00  0.00     0.174 C 
BRANCH   5   6
ATOM      6  C   UNL     1      56.776  34.042  18.443  1.00  0.00     0.247 C 
ATOM      7  N   UNL     1      56.422  35.294  19.052  1.00  0.00    -0.324 N 
ATOM      8  O   UNL     1      57.846  33.531  18.421  1.00  0.00    -0.272 OA
ATOM      9  H   UNL     1      55.435  35.588  19.010  1.00  0.00     0.170 HD
BRANCH   7  10
ATOM     10  C   UNL     1      57.358  36.168  19.719  1.00  0.00     0.042 A 
ATOM     11  C   UNL     1      57.490  36.217  21.092  1.00  0.00     0.048 A 
ATOM     12  C   UNL     1      58.095  37.004  18.902  1.00  0.00     0.028 A 
ATOM     13  C   UNL     1      58.411  37.102  21.632  1.00  0.00     0.061 A 
ATOM     14  C   UNL     1      59.001  37.884  19.436  1.00  0.00     0.024 A 
ATOM     15  C   UNL     1      59.163  37.930  20.797  1.00  0.00     0.059 A 
ATOM     16  Cl  UNL     1      58.607  37.150  23.404  1.00  0.00    -0.083 Cl
ATOM     17  Cl  UNL     1      60.363  39.107  21.382  1.00  0.00    -0.083 Cl
ENDBRANCH   7  10
ENDBRANCH   5   6
BRANCH   5  18
ATOM     18  C   UNL     1      55.732  33.315  16.319  1.00  0.00     0.015 C 
ATOM     19  C   UNL     1      56.329  32.065  15.658  1.00  0.00     0.010 C 
ATOM     20  C   UNL     1      56.407  34.569  15.742  1.00  0.00     0.010 C 
ENDBRANCH   5  18
ENDBRANCH   2   5
BRANCH   1  21
ATOM     21  C   UNL     1      51.920  33.339  18.777  1.00  0.00     0.193 C 
BRANCH  21  22
ATOM     22  C   UNL     1      50.881  32.231  18.933  1.00  0.00     0.029 C 
BRANCH  22  23
ATOM     23  C   UNL     1      49.714  32.324  17.936  1.00  0.00    -0.016 C 
ATOM     24  C   UNL     1      49.080  33.710  18.054  1.00  0.00     0.007 C 
ATOM     25  C   UNL     1      50.132  32.024  16.498  1.00  0.00     0.007 C 
ENDBRANCH  22  23
ENDBRANCH  21  22
BRANCH  21  26
ATOM     26  P   UNL     1      52.138  34.433  20.226  1.00  0.00     0.337 P 
ATOM     27  O   UNL     1      52.207  35.860  19.757  1.00  0.00    -0.260 OA
BRANCH  26  28
ATOM     28  O   UNL     1      51.039  34.135  21.191  1.00  0.00    -0.324 OA
ATOM     29  H   UNL     1      50.314  34.800  21.080  1.00  0.00     0.221 HD
ENDBRANCH  26  28
BRANCH  26  30
ATOM     30  O   UNL     1      53.405  33.989  20.919  1.00  0.00    -0.324 OA
ATOM     31  H   UNL     1      54.017  34.761  21.013  1.00  0.00     0.221 HD
ENDBRANCH  26  30
ENDBRANCH  21  26
ENDBRANCH   1  21
TORSDOF 10
ENDMDL
