MODEL 1
REMARK VINA RESULT:    -7.982      0.000      0.000
REMARK INTER + INTRA:         -13.565
REMARK INTER:                 -12.182
REMARK INTRA:                  -1.383
REMARK UNBOUND:                -1.383
REMARK SMILES CC(C)C[C@H](C(=O)N[C@H](C(=O)Nc1ccc(Cl)c(Cl)c1)C(C)C)P(=O)(O)O
REMARK SMILES IDX 6 1 8 2 7 3 9 5 10 6 12 7 11 8 13 10 20 11 14 12 18 13 15 14
REMARK SMILES IDX 16 15 19 16 17 17 21 18 22 19 23 20 5 21 4 22 2 23 1 24 3 25
REMARK SMILES IDX 24 26 25 27 27 28 26 30
REMARK H PARENT 8 4 12 9 27 29 26 31
ROOT
ATOM      1  C   UNL     1      52.506  35.606  21.067  1.00  0.00     0.235 C 
ATOM      2  N   UNL     1      53.141  35.485  22.357  1.00  0.00    -0.343 N 
ATOM      3  O   UNL     1      52.157  36.649  20.577  1.00  0.00    -0.274 OA
ATOM      4  H   UNL     1      53.478  34.565  22.675  1.00  0.00     0.164 HD
ENDROOT
BRANCH   2   5
ATOM      5  C   UNL     1      53.305  36.629  23.198  1.00  0.00     0.174 C 
BRANCH   5   6
ATOM      6  C   UNL     1      54.557  37.423  23.022  1.00  0.00     0.247 C 
ATOM      7  N   UNL     1      55.672  36.657  22.538  1.00  0.00    -0.324 N 
ATOM      8  O   UNL     1      54.521  38.591  23.223  1.00  0.00    -0.272 OA
ATOM      9  H   UNL     1      55.533  35.648  22.386  1.00  0.00     0.170 HD
BRANCH   7  10
ATOM     10  C   UNL     1      56.975  37.209  22.251  1.00  0.00     0.042 A 
ATOM     11  C   UNL     1      57.230  37.988  21.139  1.00  0.00     0.048 A 
ATOM     12  C   UNL     1      57.983  36.874  23.134  1.00  0.00     0.028 A 
ATOM     13  C   UNL     1      58.521  38.458  20.950  1.00  0.00     0.061 A 
ATOM     14  C   UNL     1      59.262  37.334  22.942  1.00  0.00     0.024 A 
ATOM     15  C   UNL     1      59.530  38.128  21.857  1.00  0.00     0.059 A 
ATOM     16  Cl  UNL     1      58.852  39.488  19.532  1.00  0.00    -0.083 Cl
ATOM     17  Cl  UNL     1      61.219  38.668  21.706  1.00  0.00    -0.083 Cl
ENDBRANCH   7  10
ENDBRANCH   5   6
BRANCH   5  18
ATOM     18  C   UNL     1      53.141  36.262  24.688  1.00  0.00     0.015 C 
ATOM     19  C   UNL     1      52.353  37.248  25.561  1.00  0.00     0.010 C 
ATOM     20  C   UNL     1      54.450  35.885  25.397  1.00  0.00     0.010 C 
ENDBRANCH   5  18
ENDBRANCH   2   5
BRANCH   1  21
ATOM     21  C   UNL     1      52.325  34.275  20.365  1.00  0.00     0.193 C 
BRANCH  21  22
ATOM     22  C   UNL     1      51.200  34.397  19.339  1.00  0.00     0.029 C 
BRANCH  22  23
ATOM     23  C   UNL     1      50.080  33.356  19.516  1.00  0.00    -0.016 C 
ATOM     24  C   UNL     1      49.033  33.576  18.424  1.00  0.00     0.007 C 
ATOM     25  C   UNL     1      50.595  31.919  19.513  1.00  0.00     0.007 C 
ENDBRANCH  22  23
ENDBRANCH  21  22
BRANCH  21  26
ATOM     26  P   UNL     1      53.939  33.716  19.710  1.00  0.00     0.337 P 
ATOM     27  O   UNL     1      53.805  33.453  18.235  1.00  0.00    -0.260 OA
BRANCH  26  28
ATOM     28  O   UNL     1      54.961  34.737  20.082  1.00  0.00    -0.324 OA
ATOM     29  H   UNL     1      54.823  35.554  19.539  1.00  0.00     0.221 HD
ENDBRANCH  26  28
BRANCH  26  30
ATOM     30  O   UNL     1      54.316  32.477  20.487  1.00  0.00    -0.324 OA
ATOM     31  H   UNL     1      54.926  32.724  21.227  1.00  0.00     0.221 HD
ENDBRANCH  26  30
ENDBRANCH  21  26
ENDBRANCH   1  21
TORSDOF 10
ENDMDL
MODEL 2
REMARK VINA RESULT:    -7.514      3.386      5.397
REMARK INTER + INTRA:         -12.850
REMARK INTER:                 -11.840
REMARK INTRA:                  -1.010
REMARK UNBOUND:                -1.383
REMARK SMILES CC(C)C[C@H](C(=O)N[C@H](C(=O)Nc1ccc(Cl)c(Cl)c1)C(C)C)P(=O)(O)O
REMARK SMILES IDX 6 1 8 2 7 3 9 5 10 6 12 7 11 8 13 10 20 11 14 12 18 13 15 14
REMARK SMILES IDX 16 15 19 16 17 17 21 18 22 19 23 20 5 21 4 22 2 23 1 24 3 25
REMARK SMILES IDX 24 26 25 27 27 28 26 30
REMARK H PARENT 8 4 12 9 27 29 26 31
ROOT
ATOM      1  C   UNL     1      55.079  37.315  22.471  1.00  0.00     0.235 C 
ATOM      2  N   UNL     1      56.188  36.404  22.319  1.00  0.00    -0.343 N 
ATOM      3  O   UNL     1      55.151  38.505  22.306  1.00  0.00    -0.274 OA
ATOM      4  H   UNL     1      56.030  35.390  22.404  1.00  0.00     0.164 HD
ENDROOT
BRANCH   2   5
ATOM      5  C   UNL     1      57.503  36.896  22.050  1.00  0.00     0.174 C 
BRANCH   5   6
ATOM      6  C   UNL     1      58.054  36.644  20.686  1.00  0.00     0.247 C 
ATOM      7  N   UNL     1      58.062  37.802  19.836  1.00  0.00    -0.324 N 
ATOM      8  O   UNL     1      58.486  35.568  20.439  1.00  0.00    -0.272 OA
ATOM      9  H   UNL     1      57.671  38.678  20.212  1.00  0.00     0.170 HD
BRANCH   7  10
ATOM     10  C   UNL     1      58.581  37.819  18.488  1.00  0.00     0.042 A 
ATOM     11  C   UNL     1      58.350  36.801  17.584  1.00  0.00     0.048 A 
ATOM     12  C   UNL     1      59.375  38.900  18.158  1.00  0.00     0.028 A 
ATOM     13  C   UNL     1      58.906  36.910  16.319  1.00  0.00     0.061 A 
ATOM     14  C   UNL     1      59.931  39.004  16.908  1.00  0.00     0.024 A 
ATOM     15  C   UNL     1      59.694  38.015  15.988  1.00  0.00     0.059 A 
ATOM     16  Cl  UNL     1      58.589  35.614  15.135  1.00  0.00    -0.083 Cl
ATOM     17  Cl  UNL     1      60.462  38.250  14.401  1.00  0.00    -0.083 Cl
ENDBRANCH   7  10
ENDBRANCH   5   6
BRANCH   5  18
ATOM     18  C   UNL     1      58.515  36.403  23.107  1.00  0.00     0.015 C 
ATOM     19  C   UNL     1      57.997  36.251  24.543  1.00  0.00     0.010 C 
ATOM     20  C   UNL     1      59.843  37.175  23.122  1.00  0.00     0.010 C 
ENDBRANCH   5  18
ENDBRANCH   2   5
BRANCH   1  21
ATOM     21  C   UNL     1      53.787  36.622  22.855  1.00  0.00     0.193 C 
BRANCH  21  22
ATOM     22  C   UNL     1      52.871  37.621  23.559  1.00  0.00     0.029 C 
BRANCH  22  23
ATOM     23  C   UNL     1      52.565  37.261  25.024  1.00  0.00    -0.016 C 
ATOM     24  C   UNL     1      53.627  36.278  25.517  1.00  0.00     0.007 C 
ATOM     25  C   UNL     1      52.472  38.485  25.932  1.00  0.00     0.007 C 
ENDBRANCH  22  23
ENDBRANCH  21  22
BRANCH  21  26
ATOM     26  P   UNL     1      53.082  35.802  21.380  1.00  0.00     0.337 P 
ATOM     27  O   UNL     1      54.204  35.374  20.474  1.00  0.00    -0.260 OA
BRANCH  26  28
ATOM     28  O   UNL     1      52.193  34.701  21.852  1.00  0.00    -0.324 OA
ATOM     29  H   UNL     1      52.601  34.262  22.640  1.00  0.00     0.221 HD
ENDBRANCH  26  28
BRANCH  26  30
ATOM     30  O   UNL     1      52.160  36.804  20.727  1.00  0.00    -0.324 OA
ATOM     31  H   UNL     1      52.693  37.440  20.186  1.00  0.00     0.221 HD
ENDBRANCH  26  30
ENDBRANCH  21  26
ENDBRANCH   1  21
TORSDOF 10
ENDMDL
MODEL 3
REMARK VINA RESULT:    -7.261      3.172      5.215
REMARK INTER + INTRA:         -12.464
REMARK INTER:                 -11.441
REMARK INTRA:                  -1.023
REMARK UNBOUND:                -1.383
REMARK SMILES CC(C)C[C@H](C(=O)N[C@H](C(=O)Nc1ccc(Cl)c(Cl)c1)C(C)C)P(=O)(O)O
REMARK SMILES IDX 6 1 8 2 7 3 9 5 10 6 12 7 11 8 13 10 20 11 14 12 18 13 15 14
REMARK SMILES IDX 16 15 19 16 17 17 21 18 22 19 23 20 5 21 4 22 2 23 1 24 3 25
REMARK SMILES IDX 24 26 25 27 27 28 26 30
REMARK H PARENT 8 4 12 9 27 29 26 31
ROOT
ATOM      1  C   UNL     1      55.074  37.348  22.564  1.00  0.00     0.235 C 
ATOM      2  N   UNL     1      56.322  36.628  22.642  1.00  0.00    -0.343 N 
ATOM      3  O   UNL     1      54.974  38.502  22.235  1.00  0.00    -0.274 OA
ATOM      4  H   UNL     1      56.318  35.622  22.859  1.00  0.00     0.164 HD
ENDROOT
BRANCH   2   5
ATOM      5  C   UNL     1      57.565  37.301  22.422  1.00  0.00     0.174 C 
BRANCH   5   6
ATOM      6  C   UNL     1      58.157  37.196  21.055  1.00  0.00     0.247 C 
ATOM      7  N   UNL     1      58.931  38.341  20.664  1.00  0.00    -0.324 N 
ATOM      8  O   UNL     1      58.006  36.189  20.448  1.00  0.00    -0.272 OA
ATOM      9  H   UNL     1      58.989  39.131  21.323  1.00  0.00     0.170 HD
BRANCH   7  10
ATOM     10  C   UNL     1      59.635  38.458  19.408  1.00  0.00     0.042 A 
ATOM     11  C   UNL     1      60.968  38.129  19.264  1.00  0.00     0.048 A 
ATOM     12  C   UNL     1      58.907  38.969  18.351  1.00  0.00     0.028 A 
ATOM     13  C   UNL     1      61.551  38.289  18.016  1.00  0.00     0.061 A 
ATOM     14  C   UNL     1      59.486  39.135  17.119  1.00  0.00     0.024 A 
ATOM     15  C   UNL     1      60.803  38.791  16.949  1.00  0.00     0.059 A 
ATOM     16  Cl  UNL     1      63.265  37.840  17.813  1.00  0.00    -0.083 Cl
ATOM     17  Cl  UNL     1      61.452  39.046  15.312  1.00  0.00    -0.083 Cl
ENDBRANCH   7  10
ENDBRANCH   5   6
BRANCH   5  18
ATOM     18  C   UNL     1      58.622  36.888  23.468  1.00  0.00     0.015 C 
ATOM     19  C   UNL     1      59.771  35.998  22.976  1.00  0.00     0.010 C 
ATOM     20  C   UNL     1      58.039  36.301  24.762  1.00  0.00     0.010 C 
ENDBRANCH   5  18
ENDBRANCH   2   5
BRANCH   1  21
ATOM     21  C   UNL     1      53.873  36.498  22.929  1.00  0.00     0.193 C 
BRANCH  21  22
ATOM     22  C   UNL     1      52.894  37.337  23.748  1.00  0.00     0.029 C 
BRANCH  22  23
ATOM     23  C   UNL     1      53.311  37.528  25.216  1.00  0.00    -0.016 C 
ATOM     24  C   UNL     1      52.167  38.212  25.964  1.00  0.00     0.007 C 
ATOM     25  C   UNL     1      53.719  36.223  25.895  1.00  0.00     0.007 C 
ENDBRANCH  22  23
ENDBRANCH  21  22
BRANCH  21  26
ATOM     26  P   UNL     1      53.191  35.736  21.413  1.00  0.00     0.337 P 
ATOM     27  O   UNL     1      52.398  36.767  20.660  1.00  0.00    -0.260 OA
BRANCH  26  28
ATOM     28  O   UNL     1      54.326  35.131  20.657  1.00  0.00    -0.324 OA
ATOM     29  H   UNL     1      54.065  34.232  20.334  1.00  0.00     0.221 HD
ENDBRANCH  26  28
BRANCH  26  30
ATOM     30  O   UNL     1      52.345  34.566  21.859  1.00  0.00    -0.324 OA
ATOM     31  H   UNL     1      51.589  34.896  22.408  1.00  0.00     0.221 HD
ENDBRANCH  26  30
ENDBRANCH  21  26
ENDBRANCH   1  21
TORSDOF 10
ENDMDL
MODEL 4
REMARK VINA RESULT:    -7.118      4.280      6.625
REMARK INTER + INTRA:         -12.246
REMARK INTER:                 -10.841
REMARK INTRA:                  -1.404
REMARK UNBOUND:                -1.383
REMARK SMILES CC(C)C[C@H](C(=O)N[C@H](C(=O)Nc1ccc(Cl)c(Cl)c1)C(C)C)P(=O)(O)O
REMARK SMILES IDX 6 1 8 2 7 3 9 5 10 6 12 7 11 8 13 10 20 11 14 12 18 13 15 14
REMARK SMILES IDX 16 15 19 16 17 17 21 18 22 19 23 20 5 21 4 22 2 23 1 24 3 25
REMARK SMILES IDX 24 26 25 27 27 28 26 30
REMARK H PARENT 8 4 12 9 27 29 26 31
ROOT
ATOM      1  C   UNL     1      48.365  32.785  18.372  1.00  0.00     0.235 C 
ATOM      2  N   UNL     1      49.684  32.628  17.808  1.00  0.00    -0.343 N 
ATOM      3  O   UNL     1      48.139  32.897  19.549  1.00  0.00    -0.274 OA
ATOM      4  H   UNL     1      49.803  32.613  16.785  1.00  0.00     0.164 HD
ENDROOT
BRANCH   2   5
ATOM      5  C   UNL     1      50.827  32.492  18.656  1.00  0.00     0.174 C 
BRANCH   5   6
ATOM      6  C   UNL     1      51.422  33.751  19.195  1.00  0.00     0.247 C 
ATOM      7  N   UNL     1      52.604  33.547  19.986  1.00  0.00    -0.324 N 
ATOM      8  O   UNL     1      50.934  34.786  18.887  1.00  0.00    -0.272 OA
ATOM      9  H   UNL     1      52.919  32.578  20.140  1.00  0.00     0.170 HD
BRANCH   7  10
ATOM     10  C   UNL     1      53.380  34.611  20.579  1.00  0.00     0.042 A 
ATOM     11  C   UNL     1      52.867  35.471  21.530  1.00  0.00     0.048 A 
ATOM     12  C   UNL     1      54.669  34.758  20.105  1.00  0.00     0.028 A 
ATOM     13  C   UNL     1      53.693  36.467  22.027  1.00  0.00     0.061 A 
ATOM     14  C   UNL     1      55.484  35.749  20.592  1.00  0.00     0.024 A 
ATOM     15  C   UNL     1      55.000  36.598  21.554  1.00  0.00     0.059 A 
ATOM     16  Cl  UNL     1      53.047  37.564  23.276  1.00  0.00    -0.083 Cl
ATOM     17  Cl  UNL     1      56.140  37.844  22.114  1.00  0.00    -0.083 Cl
ENDBRANCH   7  10
ENDBRANCH   5   6
BRANCH   5  18
ATOM     18  C   UNL     1      51.933  31.654  17.981  1.00  0.00     0.015 C 
ATOM     19  C   UNL     1      52.567  32.239  16.711  1.00  0.00     0.010 C 
ATOM     20  C   UNL     1      51.556  30.186  17.733  1.00  0.00     0.010 C 
ENDBRANCH   5  18
ENDBRANCH   2   5
BRANCH   1  21
ATOM     21  C   UNL     1      47.269  32.807  17.326  1.00  0.00     0.193 C 
BRANCH  21  22
ATOM     22  C   UNL     1      47.216  34.190  16.681  1.00  0.00     0.029 C 
BRANCH  22  23
ATOM     23  C   UNL     1      45.802  34.633  16.267  1.00  0.00    -0.016 C 
ATOM     24  C   UNL     1      45.614  34.336  14.779  1.00  0.00     0.007 C 
ATOM     25  C   UNL     1      44.704  33.985  17.108  1.00  0.00     0.007 C 
ENDBRANCH  22  23
ENDBRANCH  21  22
BRANCH  21  26
ATOM     26  P   UNL     1      47.506  31.404  16.177  1.00  0.00     0.337 P 
ATOM     27  O   UNL     1      48.368  31.851  15.028  1.00  0.00    -0.260 OA
BRANCH  26  28
ATOM     28  O   UNL     1      48.043  30.256  16.963  1.00  0.00    -0.324 OA
ATOM     29  H   UNL     1      47.358  29.951  17.610  1.00  0.00     0.221 HD
ENDBRANCH  26  28
BRANCH  26  30
ATOM     30  O   UNL     1      46.128  30.970  15.732  1.00  0.00    -0.324 OA
ATOM     31  H   UNL     1      45.937  31.346  14.836  1.00  0.00     0.221 HD
ENDBRANCH  26  30
ENDBRANCH  21  26
ENDBRANCH   1  21
TORSDOF 10
ENDMDL
MODEL 5
REMARK VINA RESULT:    -6.750      6.800     10.611
REMARK INTER + INTRA:         -11.685
REMARK INTER:                 -10.634
REMARK INTRA:                  -1.051
REMARK UNBOUND:                -1.383
REMARK SMILES CC(C)C[C@H](C(=O)N[C@H](C(=O)Nc1ccc(Cl)c(Cl)c1)C(C)C)P(=O)(O)O
REMARK SMILES IDX 6 1 8 2 7 3 9 5 10 6 12 7 11 8 13 10 20 11 14 12 18 13 15 14
REMARK SMILES IDX 16 15 19 16 17 17 21 18 22 19 23 20 5 21 4 22 2 23 1 24 3 25
REMARK SMILES IDX 24 26 25 27 27 28 26 30
REMARK H PARENT 8 4 12 9 27 29 26 31
ROOT
ATOM      1  C   UNL     1      51.631  32.316  17.799  1.00  0.00     0.235 C 
ATOM      2  N   UNL     1      50.866  31.128  18.089  1.00  0.00    -0.343 N 
ATOM      3  O   UNL     1      51.793  32.767  16.694  1.00  0.00    -0.274 OA
ATOM      4  H   UNL     1      50.711  30.847  19.067  1.00  0.00     0.164 HD
ENDROOT
BRANCH   2   5
ATOM      5  C   UNL     1      50.321  30.337  17.029  1.00  0.00     0.174 C 
BRANCH   5   6
ATOM      6  C   UNL     1      48.949  30.690  16.559  1.00  0.00     0.247 C 
ATOM      7  N   UNL     1      48.749  32.097  16.344  1.00  0.00    -0.324 N 
ATOM      8  O   UNL     1      48.180  29.814  16.343  1.00  0.00    -0.272 OA
ATOM      9  H   UNL     1      49.532  32.732  16.554  1.00  0.00     0.170 HD
BRANCH   7  10
ATOM     10  C   UNL     1      47.522  32.678  15.852  1.00  0.00     0.042 A 
ATOM     11  C   UNL     1      46.863  32.202  14.736  1.00  0.00     0.048 A 
ATOM     12  C   UNL     1      47.058  33.785  16.537  1.00  0.00     0.028 A 
ATOM     13  C   UNL     1      45.698  32.841  14.341  1.00  0.00     0.061 A 
ATOM     14  C   UNL     1      45.909  34.421  16.141  1.00  0.00     0.024 A 
ATOM     15  C   UNL     1      45.227  33.948  15.049  1.00  0.00     0.059 A 
ATOM     16  Cl  UNL     1      44.824  32.215  12.917  1.00  0.00    -0.083 Cl
ATOM     17  Cl  UNL     1      43.751  34.848  14.625  1.00  0.00    -0.083 Cl
ENDBRANCH   7  10
ENDBRANCH   5   6
BRANCH   5  18
ATOM     18  C   UNL     1      50.371  28.832  17.367  1.00  0.00     0.015 C 
ATOM     19  C   UNL     1      50.300  28.453  18.853  1.00  0.00     0.010 C 
ATOM     20  C   UNL     1      51.527  28.069  16.702  1.00  0.00     0.010 C 
ENDBRANCH   5  18
ENDBRANCH   2   5
BRANCH   1  21
ATOM     21  C   UNL     1      52.216  32.965  19.037  1.00  0.00     0.193 C 
BRANCH  21  22
ATOM     22  C   UNL     1      53.370  33.879  18.630  1.00  0.00     0.029 C 
BRANCH  22  23
ATOM     23  C   UNL     1      54.752  33.383  19.091  1.00  0.00    -0.016 C 
ATOM     24  C   UNL     1      55.075  32.084  18.352  1.00  0.00     0.007 C 
ATOM     25  C   UNL     1      55.853  34.422  18.899  1.00  0.00     0.007 C 
ENDBRANCH  22  23
ENDBRANCH  21  22
BRANCH  21  26
ATOM     26  P   UNL     1      50.874  33.759  19.992  1.00  0.00     0.337 P 
ATOM     27  O   UNL     1      49.649  32.888  19.933  1.00  0.00    -0.260 OA
BRANCH  26  28
ATOM     28  O   UNL     1      51.391  34.035  21.364  1.00  0.00    -0.324 OA
ATOM     29  H   UNL     1      52.380  33.983  21.360  1.00  0.00     0.221 HD
ENDBRANCH  26  28
BRANCH  26  30
ATOM     30  O   UNL     1      50.648  35.119  19.373  1.00  0.00    -0.324 OA
ATOM     31  H   UNL     1      51.079  35.812  19.934  1.00  0.00     0.221 HD
ENDBRANCH  26  30
ENDBRANCH  21  26
ENDBRANCH   1  21
TORSDOF 10
ENDMDL
MODEL 6
REMARK VINA RESULT:    -6.721      4.093      6.016
REMARK INTER + INTRA:         -11.641
REMARK INTER:                 -10.914
REMARK INTRA:                  -0.727
REMARK UNBOUND:                -1.383
REMARK SMILES CC(C)C[C@H](C(=O)N[C@H](C(=O)Nc1ccc(Cl)c(Cl)c1)C(C)C)P(=O)(O)O
REMARK SMILES IDX 6 1 8 2 7 3 9 5 10 6 12 7 11 8 13 10 20 11 14 12 18 13 15 14
REMARK SMILES IDX 16 15 19 16 17 17 21 18 22 19 23 20 5 21 4 22 2 23 1 24 3 25
REMARK SMILES IDX 24 26 25 27 27 28 26 30
REMARK H PARENT 8 4 12 9 27 29 26 31
ROOT
ATOM      1  C   UNL     1      50.590  32.769  18.452  1.00  0.00     0.235 C 
ATOM      2  N   UNL     1      51.500  33.886  18.527  1.00  0.00    -0.343 N 
ATOM      3  O   UNL     1      50.558  31.863  19.245  1.00  0.00    -0.274 OA
ATOM      4  H   UNL     1      51.416  34.659  17.853  1.00  0.00     0.164 HD
ENDROOT
BRANCH   2   5
ATOM      5  C   UNL     1      52.518  33.928  19.531  1.00  0.00     0.174 C 
BRANCH   5   6
ATOM      6  C   UNL     1      52.506  35.098  20.457  1.00  0.00     0.247 C 
ATOM      7  N   UNL     1      53.081  34.829  21.746  1.00  0.00    -0.324 N 
ATOM      8  O   UNL     1      52.100  36.137  20.054  1.00  0.00    -0.272 OA
ATOM      9  H   UNL     1      53.417  33.874  21.934  1.00  0.00     0.170 HD
BRANCH   7  10
ATOM     10  C   UNL     1      53.220  35.811  22.796  1.00  0.00     0.042 A 
ATOM     11  C   UNL     1      53.593  35.482  24.084  1.00  0.00     0.048 A 
ATOM     12  C   UNL     1      52.909  37.113  22.454  1.00  0.00     0.028 A 
ATOM     13  C   UNL     1      53.684  36.500  25.021  1.00  0.00     0.061 A 
ATOM     14  C   UNL     1      52.992  38.119  23.383  1.00  0.00     0.024 A 
ATOM     15  C   UNL     1      53.384  37.816  24.662  1.00  0.00     0.059 A 
ATOM     16  Cl  UNL     1      54.193  36.088  26.680  1.00  0.00    -0.083 Cl
ATOM     17  Cl  UNL     1      53.459  39.195  25.783  1.00  0.00    -0.083 Cl
ENDBRANCH   7  10
ENDBRANCH   5   6
BRANCH   5  18
ATOM     18  C   UNL     1      53.925  33.783  18.912  1.00  0.00     0.015 C 
ATOM     19  C   UNL     1      54.035  33.969  17.392  1.00  0.00     0.010 C 
ATOM     20  C   UNL     1      54.672  32.506  19.325  1.00  0.00     0.010 C 
ENDBRANCH   5  18
ENDBRANCH   2   5
BRANCH   1  21
ATOM     21  C   UNL     1      49.650  32.846  17.265  1.00  0.00     0.193 C 
BRANCH  21  22
ATOM     22  C   UNL     1      49.965  31.705  16.300  1.00  0.00     0.029 C 
BRANCH  22  23
ATOM     23  C   UNL     1      51.359  31.801  15.654  1.00  0.00    -0.016 C 
ATOM     24  C   UNL     1      52.219  30.650  16.177  1.00  0.00     0.007 C 
ATOM     25  C   UNL     1      51.310  31.812  14.128  1.00  0.00     0.007 C 
ENDBRANCH  22  23
ENDBRANCH  21  22
BRANCH  21  26
ATOM     26  P   UNL     1      47.925  32.922  17.867  1.00  0.00     0.337 P 
ATOM     27  O   UNL     1      47.307  34.219  17.422  1.00  0.00    -0.260 OA
BRANCH  26  28
ATOM     28  O   UNL     1      47.223  31.692  17.398  1.00  0.00    -0.324 OA
ATOM     29  H   UNL     1      46.402  31.556  17.935  1.00  0.00     0.221 HD
ENDBRANCH  26  28
BRANCH  26  30
ATOM     30  O   UNL     1      47.985  32.795  19.371  1.00  0.00    -0.324 OA
ATOM     31  H   UNL     1      47.956  31.838  19.623  1.00  0.00     0.221 HD
ENDBRANCH  26  30
ENDBRANCH  21  26
ENDBRANCH   1  21
TORSDOF 10
ENDMDL
MODEL 7
REMARK VINA RESULT:    -6.703      3.347      5.533
REMARK INTER + INTRA:         -11.614
REMARK INTER:                 -10.333
REMARK INTRA:                  -1.280
REMARK UNBOUND:                -1.383
REMARK SMILES CC(C)C[C@H](C(=O)N[C@H](C(=O)Nc1ccc(Cl)c(Cl)c1)C(C)C)P(=O)(O)O
REMARK SMILES IDX 6 1 8 2 7 3 9 5 10 6 12 7 11 8 13 10 20 11 14 12 18 13 15 14
REMARK SMILES IDX 16 15 19 16 17 17 21 18 22 19 23 20 5 21 4 22 2 23 1 24 3 25
REMARK SMILES IDX 24 26 25 27 27 28 26 30
REMARK H PARENT 8 4 12 9 27 29 26 31
ROOT
ATOM      1  C   UNL     1      55.100  37.302  22.429  1.00  0.00     0.235 C 
ATOM      2  N   UNL     1      56.271  36.481  22.243  1.00  0.00    -0.343 N 
ATOM      3  O   UNL     1      55.073  38.495  22.269  1.00  0.00    -0.274 OA
ATOM      4  H   UNL     1      56.196  35.457  22.328  1.00  0.00     0.164 HD
ENDROOT
BRANCH   2   5
ATOM      5  C   UNL     1      57.536  37.076  21.942  1.00  0.00     0.174 C 
BRANCH   5   6
ATOM      6  C   UNL     1      58.026  36.948  20.538  1.00  0.00     0.247 C 
ATOM      7  N   UNL     1      58.729  35.723  20.273  1.00  0.00    -0.324 N 
ATOM      8  O   UNL     1      57.753  37.801  19.762  1.00  0.00    -0.272 OA
ATOM      9  H   UNL     1      58.862  35.065  21.055  1.00  0.00     0.170 HD
BRANCH   7  10
ATOM     10  C   UNL     1      59.261  35.352  18.983  1.00  0.00     0.042 A 
ATOM     11  C   UNL     1      60.505  35.758  18.541  1.00  0.00     0.048 A 
ATOM     12  C   UNL     1      58.429  34.598  18.178  1.00  0.00     0.028 A 
ATOM     13  C   UNL     1      60.916  35.357  17.280  1.00  0.00     0.061 A 
ATOM     14  C   UNL     1      58.833  34.208  16.926  1.00  0.00     0.024 A 
ATOM     15  C   UNL     1      60.075  34.580  16.480  1.00  0.00     0.059 A 
ATOM     16  Cl  UNL     1      62.533  35.853  16.713  1.00  0.00    -0.083 Cl
ATOM     17  Cl  UNL     1      60.497  34.019  14.844  1.00  0.00    -0.083 Cl
ENDBRANCH   7  10
ENDBRANCH   5   6
BRANCH   5  18
ATOM     18  C   UNL     1      58.634  36.586  22.911  1.00  0.00     0.015 C 
ATOM     19  C   UNL     1      58.189  36.225  24.335  1.00  0.00     0.010 C 
ATOM     20  C   UNL     1      59.873  37.492  22.977  1.00  0.00     0.010 C 
ENDBRANCH   5  18
ENDBRANCH   2   5
BRANCH   1  21
ATOM     21  C   UNL     1      53.877  36.509  22.845  1.00  0.00     0.193 C 
BRANCH  21  22
ATOM     22  C   UNL     1      52.959  37.399  23.679  1.00  0.00     0.029 C 
BRANCH  22  23
ATOM     23  C   UNL     1      53.410  37.564  25.141  1.00  0.00    -0.016 C 
ATOM     24  C   UNL     1      52.366  38.400  25.883  1.00  0.00     0.007 C 
ATOM     25  C   UNL     1      53.656  36.230  25.843  1.00  0.00     0.007 C 
ENDBRANCH  22  23
ENDBRANCH  21  22
BRANCH  21  26
ATOM     26  P   UNL     1      53.117  35.754  21.362  1.00  0.00     0.337 P 
ATOM     27  O   UNL     1      54.203  35.375  20.394  1.00  0.00    -0.260 OA
BRANCH  26  28
ATOM     28  O   UNL     1      52.250  34.628  21.817  1.00  0.00    -0.324 OA
ATOM     29  H   UNL     1      52.265  33.906  21.139  1.00  0.00     0.221 HD
ENDBRANCH  26  28
BRANCH  26  30
ATOM     30  O   UNL     1      52.166  36.781  20.793  1.00  0.00    -0.324 OA
ATOM     31  H   UNL     1      51.478  36.325  20.245  1.00  0.00     0.221 HD
ENDBRANCH  26  30
ENDBRANCH  21  26
ENDBRANCH   1  21
TORSDOF 10
ENDMDL
MODEL 8
REMARK VINA RESULT:    -6.674      4.861      7.247
REMARK INTER + INTRA:         -11.569
REMARK INTER:                 -10.080
REMARK INTRA:                  -1.489
REMARK UNBOUND:                -1.383
REMARK SMILES CC(C)C[C@H](C(=O)N[C@H](C(=O)Nc1ccc(Cl)c(Cl)c1)C(C)C)P(=O)(O)O
REMARK SMILES IDX 6 1 8 2 7 3 9 5 10 6 12 7 11 8 13 10 20 11 14 12 18 13 15 14
REMARK SMILES IDX 16 15 19 16 17 17 21 18 22 19 23 20 5 21 4 22 2 23 1 24 3 25
REMARK SMILES IDX 24 26 25 27 27 28 26 30
REMARK H PARENT 8 4 12 9 27 29 26 31
ROOT
ATOM      1  C   UNL     1      47.854  33.175  17.238  1.00  0.00     0.235 C 
ATOM      2  N   UNL     1      49.286  33.001  17.250  1.00  0.00    -0.343 N 
ATOM      3  O   UNL     1      47.165  33.209  18.224  1.00  0.00    -0.274 OA
ATOM      4  H   UNL     1      49.815  33.058  16.368  1.00  0.00     0.164 HD
ENDROOT
BRANCH   2   5
ATOM      5  C   UNL     1      49.978  32.750  18.476  1.00  0.00     0.174 C 
BRANCH   5   6
ATOM      6  C   UNL     1      50.709  33.899  19.087  1.00  0.00     0.247 C 
ATOM      7  N   UNL     1      51.914  33.526  19.775  1.00  0.00    -0.324 N 
ATOM      8  O   UNL     1      50.293  34.995  18.910  1.00  0.00    -0.272 OA
ATOM      9  H   UNL     1      52.154  32.525  19.817  1.00  0.00     0.170 HD
BRANCH   7  10
ATOM     10  C   UNL     1      52.812  34.463  20.410  1.00  0.00     0.042 A 
ATOM     11  C   UNL     1      52.403  35.340  21.395  1.00  0.00     0.048 A 
ATOM     12  C   UNL     1      54.111  34.470  19.942  1.00  0.00     0.028 A 
ATOM     13  C   UNL     1      53.343  36.207  21.931  1.00  0.00     0.061 A 
ATOM     14  C   UNL     1      55.039  35.333  20.468  1.00  0.00     0.024 A 
ATOM     15  C   UNL     1      54.658  36.196  21.464  1.00  0.00     0.059 A 
ATOM     16  Cl  UNL     1      52.830  37.325  23.224  1.00  0.00    -0.083 Cl
ATOM     17  Cl  UNL     1      55.940  37.270  22.073  1.00  0.00    -0.083 Cl
ENDBRANCH   7  10
ENDBRANCH   5   6
BRANCH   5  18
ATOM     18  C   UNL     1      50.938  31.548  18.346  1.00  0.00     0.015 C 
ATOM     19  C   UNL     1      51.697  31.410  17.019  1.00  0.00     0.010 C 
ATOM     20  C   UNL     1      50.315  30.195  18.720  1.00  0.00     0.010 C 
ENDBRANCH   5  18
ENDBRANCH   2   5
BRANCH   1  21
ATOM     21  C   UNL     1      47.285  33.326  15.841  1.00  0.00     0.193 C 
BRANCH  21  22
ATOM     22  C   UNL     1      47.243  31.957  15.165  1.00  0.00     0.029 C 
BRANCH  22  23
ATOM     23  C   UNL     1      48.317  31.764  14.080  1.00  0.00    -0.016 C 
ATOM     24  C   UNL     1      49.127  30.511  14.412  1.00  0.00     0.007 C 
ATOM     25  C   UNL     1      47.735  31.695  12.670  1.00  0.00     0.007 C 
ENDBRANCH  22  23
ENDBRANCH  21  22
BRANCH  21  26
ATOM     26  P   UNL     1      45.688  34.214  15.934  1.00  0.00     0.337 P 
ATOM     27  O   UNL     1      45.210  34.509  14.540  1.00  0.00    -0.260 OA
BRANCH  26  28
ATOM     28  O   UNL     1      44.758  33.393  16.764  1.00  0.00    -0.324 OA
ATOM     29  H   UNL     1      44.933  33.565  17.723  1.00  0.00     0.221 HD
ENDBRANCH  26  28
BRANCH  26  30
ATOM     30  O   UNL     1      45.936  35.467  16.740  1.00  0.00    -0.324 OA
ATOM     31  H   UNL     1      45.069  35.867  17.004  1.00  0.00     0.221 HD
ENDBRANCH  26  30
ENDBRANCH  21  26
ENDBRANCH   1  21
TORSDOF 10
ENDMDL
MODEL 9
REMARK VINA RESULT:    -6.485      8.729     11.013
REMARK INTER + INTRA:         -11.279
REMARK INTER:                  -9.921
REMARK INTRA:                  -1.358
REMARK UNBOUND:                -1.383
REMARK SMILES CC(C)C[C@H](C(=O)N[C@H](C(=O)Nc1ccc(Cl)c(Cl)c1)C(C)C)P(=O)(O)O
REMARK SMILES IDX 6 1 8 2 7 3 9 5 10 6 12 7 11 8 13 10 20 11 14 12 18 13 15 14
REMARK SMILES IDX 16 15 19 16 17 17 21 18 22 19 23 20 5 21 4 22 2 23 1 24 3 25
REMARK SMILES IDX 24 26 25 27 27 28 26 30
REMARK H PARENT 8 4 12 9 27 29 26 31
ROOT
ATOM      1  C   UNL     1      47.031  31.740  16.377  1.00  0.00     0.235 C 
ATOM      2  N   UNL     1      48.240  31.685  15.591  1.00  0.00    -0.343 N 
ATOM      3  O   UNL     1      46.237  30.840  16.466  1.00  0.00    -0.274 OA
ATOM      4  H   UNL     1      48.907  32.469  15.624  1.00  0.00     0.164 HD
ENDROOT
BRANCH   2   5
ATOM      5  C   UNL     1      48.519  30.552  14.765  1.00  0.00     0.174 C 
BRANCH   5   6
ATOM      6  C   UNL     1      49.215  29.400  15.411  1.00  0.00     0.247 C 
ATOM      7  N   UNL     1      49.871  29.731  16.645  1.00  0.00    -0.324 N 
ATOM      8  O   UNL     1      49.122  28.329  14.912  1.00  0.00    -0.272 OA
ATOM      9  H   UNL     1      49.838  30.711  16.961  1.00  0.00     0.170 HD
BRANCH   7  10
ATOM     10  C   UNL     1      50.576  28.780  17.473  1.00  0.00     0.042 A 
ATOM     11  C   UNL     1      51.906  28.464  17.284  1.00  0.00     0.048 A 
ATOM     12  C   UNL     1      49.826  28.156  18.451  1.00  0.00     0.028 A 
ATOM     13  C   UNL     1      52.484  27.528  18.127  1.00  0.00     0.061 A 
ATOM     14  C   UNL     1      50.396  27.224  19.281  1.00  0.00     0.024 A 
ATOM     15  C   UNL     1      51.723  26.914  19.124  1.00  0.00     0.059 A 
ATOM     16  Cl  UNL     1      54.210  27.134  17.908  1.00  0.00    -0.083 Cl
ATOM     17  Cl  UNL     1      52.359  25.694  20.253  1.00  0.00    -0.083 Cl
ENDBRANCH   7  10
ENDBRANCH   5   6
BRANCH   5  18
ATOM     18  C   UNL     1      49.287  30.960  13.489  1.00  0.00     0.015 C 
ATOM     19  C   UNL     1      50.697  31.533  13.684  1.00  0.00     0.010 C 
ATOM     20  C   UNL     1      48.495  31.866  12.534  1.00  0.00     0.010 C 
ENDBRANCH   5  18
ENDBRANCH   2   5
BRANCH   1  21
ATOM     21  C   UNL     1      46.854  33.058  17.105  1.00  0.00     0.193 C 
BRANCH  21  22
ATOM     22  C   UNL     1      48.139  33.875  16.986  1.00  0.00     0.029 C 
BRANCH  22  23
ATOM     23  C   UNL     1      49.062  33.769  18.212  1.00  0.00    -0.016 C 
ATOM     24  C   UNL     1      48.352  32.946  19.287  1.00  0.00     0.007 C 
ATOM     25  C   UNL     1      50.433  33.186  17.878  1.00  0.00     0.007 C 
ENDBRANCH  22  23
ENDBRANCH  21  22
BRANCH  21  26
ATOM     26  P   UNL     1      45.334  33.878  16.503  1.00  0.00     0.337 P 
ATOM     27  O   UNL     1      45.556  35.365  16.478  1.00  0.00    -0.260 OA
BRANCH  26  28
ATOM     28  O   UNL     1      44.976  33.268  15.190  1.00  0.00    -0.324 OA
ATOM     29  H   UNL     1      44.784  33.984  14.534  1.00  0.00     0.221 HD
ENDBRANCH  26  28
BRANCH  26  30
ATOM     30  O   UNL     1      44.223  33.475  17.444  1.00  0.00    -0.324 OA
ATOM     31  H   UNL     1      44.461  33.738  18.368  1.00  0.00     0.221 HD
ENDBRANCH  26  30
ENDBRANCH  21  26
ENDBRANCH   1  21
TORSDOF 10
ENDMDL
MODEL 10
REMARK VINA RESULT:    -6.338      7.626     11.779
REMARK INTER + INTRA:         -11.056
REMARK INTER:                  -9.868
REMARK INTRA:                  -1.188
REMARK UNBOUND:                -1.383
REMARK SMILES CC(C)C[C@H](C(=O)N[C@H](C(=O)Nc1ccc(Cl)c(Cl)c1)C(C)C)P(=O)(O)O
REMARK SMILES IDX 6 1 8 2 7 3 9 5 10 6 12 7 11 8 13 10 20 11 14 12 18 13 15 14
REMARK SMILES IDX 16 15 19 16 17 17 21 18 22 19 23 20 5 21 4 22 2 23 1 24 3 25
REMARK SMILES IDX 24 26 25 27 27 28 26 30
REMARK H PARENT 8 4 12 9 27 29 26 31
ROOT
ATOM      1  C   UNL     1      50.200  32.401  18.677  1.00  0.00     0.235 C 
ATOM      2  N   UNL     1      49.829  32.164  17.302  1.00  0.00    -0.343 N 
ATOM      3  O   UNL     1      49.460  32.256  19.615  1.00  0.00    -0.274 OA
ATOM      4  H   UNL     1      50.541  32.239  16.562  1.00  0.00     0.164 HD
ENDROOT
BRANCH   2   5
ATOM      5  C   UNL     1      48.483  31.827  16.960  1.00  0.00     0.174 C 
BRANCH   5   6
ATOM      6  C   UNL     1      48.274  30.551  16.213  1.00  0.00     0.247 C 
ATOM      7  N   UNL     1      47.350  29.650  16.843  1.00  0.00    -0.324 N 
ATOM      8  O   UNL     1      48.814  30.412  15.167  1.00  0.00    -0.272 OA
ATOM      9  H   UNL     1      46.942  29.931  17.746  1.00  0.00     0.170 HD
BRANCH   7  10
ATOM     10  C   UNL     1      46.956  28.373  16.294  1.00  0.00     0.042 A 
ATOM     11  C   UNL     1      47.737  27.240  16.399  1.00  0.00     0.048 A 
ATOM     12  C   UNL     1      45.759  28.354  15.604  1.00  0.00     0.028 A 
ATOM     13  C   UNL     1      47.271  26.067  15.825  1.00  0.00     0.061 A 
ATOM     14  C   UNL     1      45.302  27.195  15.030  1.00  0.00     0.024 A 
ATOM     15  C   UNL     1      46.052  26.053  15.144  1.00  0.00     0.059 A 
ATOM     16  Cl  UNL     1      48.260  24.591  15.980  1.00  0.00    -0.083 Cl
ATOM     17  Cl  UNL     1      45.365  24.609  14.363  1.00  0.00    -0.083 Cl
ENDBRANCH   7  10
ENDBRANCH   5   6
BRANCH   5  18
ATOM     18  C   UNL     1      47.789  32.979  16.203  1.00  0.00     0.015 C 
ATOM     19  C   UNL     1      47.586  34.291  16.974  1.00  0.00     0.010 C 
ATOM     20  C   UNL     1      46.474  32.585  15.512  1.00  0.00     0.010 C 
ENDBRANCH   5  18
ENDBRANCH   2   5
BRANCH   1  21
ATOM     21  C   UNL     1      51.640  32.848  18.836  1.00  0.00     0.193 C 
BRANCH  21  22
ATOM     22  C   UNL     1      52.308  32.890  17.463  1.00  0.00     0.029 C 
BRANCH  22  23
ATOM     23  C   UNL     1      53.457  31.880  17.298  1.00  0.00    -0.016 C 
ATOM     24  C   UNL     1      54.514  32.163  18.366  1.00  0.00     0.007 C 
ATOM     25  C   UNL     1      52.986  30.428  17.350  1.00  0.00     0.007 C 
ENDBRANCH  22  23
ENDBRANCH  21  22
BRANCH  21  26
ATOM     26  P   UNL     1      51.682  34.410  19.788  1.00  0.00     0.337 P 
ATOM     27  O   UNL     1      53.076  34.973  19.743  1.00  0.00    -0.260 OA
BRANCH  26  28
ATOM     28  O   UNL     1      50.619  35.304  19.244  1.00  0.00    -0.324 OA
ATOM     29  H   UNL     1      50.061  35.643  19.989  1.00  0.00     0.221 HD
ENDBRANCH  26  28
BRANCH  26  30
ATOM     30  O   UNL     1      51.238  34.074  21.192  1.00  0.00    -0.324 OA
ATOM     31  H   UNL     1      50.695  34.819  21.553  1.00  0.00     0.221 HD
ENDBRANCH  26  30
ENDBRANCH  21  26
ENDBRANCH   1  21
TORSDOF 10
ENDMDL
MODEL 11
REMARK VINA RESULT:    -6.300      5.787      9.077
REMARK INTER + INTRA:         -10.999
REMARK INTER:                  -9.690
REMARK INTRA:                  -1.308
REMARK UNBOUND:                -1.383
REMARK SMILES CC(C)C[C@H](C(=O)N[C@H](C(=O)Nc1ccc(Cl)c(Cl)c1)C(C)C)P(=O)(O)O
REMARK SMILES IDX 6 1 8 2 7 3 9 5 10 6 12 7 11 8 13 10 20 11 14 12 18 13 15 14
REMARK SMILES IDX 16 15 19 16 17 17 21 18 22 19 23 20 5 21 4 22 2 23 1 24 3 25
REMARK SMILES IDX 24 26 25 27 27 28 26 30
REMARK H PARENT 8 4 12 9 27 29 26 31
ROOT
ATOM      1  C   UNL     1      47.089  32.774  16.224  1.00  0.00     0.235 C 
ATOM      2  N   UNL     1      48.197  32.039  15.663  1.00  0.00    -0.343 N 
ATOM      3  O   UNL     1      46.890  32.908  17.404  1.00  0.00    -0.274 OA
ATOM      4  H   UNL     1      48.342  32.033  14.644  1.00  0.00     0.164 HD
ENDROOT
BRANCH   2   5
ATOM      5  C   UNL     1      49.097  31.320  16.511  1.00  0.00     0.174 C 
BRANCH   5   6
ATOM      6  C   UNL     1      50.291  32.061  17.013  1.00  0.00     0.247 C 
ATOM      7  N   UNL     1      50.079  32.730  18.267  1.00  0.00    -0.324 N 
ATOM      8  O   UNL     1      51.302  31.991  16.399  1.00  0.00    -0.272 OA
ATOM      9  H   UNL     1      49.142  32.673  18.691  1.00  0.00     0.170 HD
BRANCH   7  10
ATOM     10  C   UNL     1      51.094  33.477  18.973  1.00  0.00     0.042 A 
ATOM     11  C   UNL     1      52.438  33.381  18.673  1.00  0.00     0.048 A 
ATOM     12  C   UNL     1      50.650  34.269  20.014  1.00  0.00     0.028 A 
ATOM     13  C   UNL     1      53.332  34.133  19.420  1.00  0.00     0.061 A 
ATOM     14  C   UNL     1      51.535  35.007  20.758  1.00  0.00     0.024 A 
ATOM     15  C   UNL     1      52.872  34.944  20.459  1.00  0.00     0.059 A 
ATOM     16  Cl  UNL     1      55.067  34.037  19.021  1.00  0.00    -0.083 Cl
ATOM     17  Cl  UNL     1      53.930  35.940  21.487  1.00  0.00    -0.083 Cl
ENDBRANCH   7  10
ENDBRANCH   5   6
BRANCH   5  18
ATOM     18  C   UNL     1      49.556  30.001  15.853  1.00  0.00     0.015 C 
ATOM     19  C   UNL     1      48.838  29.585  14.562  1.00  0.00     0.010 C 
ATOM     20  C   UNL     1      49.618  28.802  16.812  1.00  0.00     0.010 C 
ENDBRANCH   5  18
ENDBRANCH   2   5
BRANCH   1  21
ATOM     21  C   UNL     1      46.186  33.384  15.171  1.00  0.00     0.193 C 
BRANCH  21  22
ATOM     22  C   UNL     1      45.668  32.280  14.252  1.00  0.00     0.029 C 
BRANCH  22  23
ATOM     23  C   UNL     1      45.923  32.543  12.757  1.00  0.00    -0.016 C 
ATOM     24  C   UNL     1      46.499  31.273  12.129  1.00  0.00     0.007 C 
ATOM     25  C   UNL     1      44.676  33.016  12.013  1.00  0.00     0.007 C 
ENDBRANCH  22  23
ENDBRANCH  21  22
BRANCH  21  26
ATOM     26  P   UNL     1      44.904  34.399  15.992  1.00  0.00     0.337 P 
ATOM     27  O   UNL     1      43.959  34.932  14.951  1.00  0.00    -0.260 OA
BRANCH  26  28
ATOM     28  O   UNL     1      44.273  33.563  17.054  1.00  0.00    -0.324 OA
ATOM     29  H   UNL     1      43.320  33.412  16.832  1.00  0.00     0.221 HD
ENDBRANCH  26  28
BRANCH  26  30
ATOM     30  O   UNL     1      45.630  35.498  16.733  1.00  0.00    -0.324 OA
ATOM     31  H   UNL     1      46.481  35.701  16.269  1.00  0.00     0.221 HD
ENDBRANCH  26  30
ENDBRANCH  21  26
ENDBRANCH   1  21
TORSDOF 10
ENDMDL
MODEL 12
REMARK VINA RESULT:    -6.243      4.038      5.849
REMARK INTER + INTRA:         -10.911
REMARK INTER:                 -10.445
REMARK INTRA:                  -0.466
REMARK UNBOUND:                -1.383
REMARK SMILES CC(C)C[C@H](C(=O)N[C@H](C(=O)Nc1ccc(Cl)c(Cl)c1)C(C)C)P(=O)(O)O
REMARK SMILES IDX 6 1 8 2 7 3 9 5 10 6 12 7 11 8 13 10 20 11 14 12 18 13 15 14
REMARK SMILES IDX 16 15 19 16 17 17 21 18 22 19 23 20 5 21 4 22 2 23 1 24 3 25
REMARK SMILES IDX 24 26 25 27 27 28 26 30
REMARK H PARENT 8 4 12 9 27 29 26 31
ROOT
ATOM      1  C   UNL     1      50.020  32.730  19.065  1.00  0.00     0.235 C 
ATOM      2  N   UNL     1      51.229  33.279  18.499  1.00  0.00    -0.343 N 
ATOM      3  O   UNL     1      49.856  32.517  20.239  1.00  0.00    -0.274 OA
ATOM      4  H   UNL     1      51.266  33.502  17.495  1.00  0.00     0.164 HD
ENDROOT
BRANCH   2   5
ATOM      5  C   UNL     1      52.374  33.518  19.321  1.00  0.00     0.174 C 
BRANCH   5   6
ATOM      6  C   UNL     1      52.357  34.749  20.165  1.00  0.00     0.247 C 
ATOM      7  N   UNL     1      52.980  34.585  21.450  1.00  0.00    -0.324 N 
ATOM      8  O   UNL     1      51.908  35.745  19.706  1.00  0.00    -0.272 OA
ATOM      9  H   UNL     1      53.349  33.655  21.691  1.00  0.00     0.170 HD
BRANCH   7  10
ATOM     10  C   UNL     1      53.122  35.641  22.425  1.00  0.00     0.042 A 
ATOM     11  C   UNL     1      53.425  35.400  23.750  1.00  0.00     0.048 A 
ATOM     12  C   UNL     1      52.889  36.924  21.968  1.00  0.00     0.028 A 
ATOM     13  C   UNL     1      53.527  36.485  24.607  1.00  0.00     0.061 A 
ATOM     14  C   UNL     1      52.982  37.997  22.818  1.00  0.00     0.024 A 
ATOM     15  C   UNL     1      53.306  37.779  24.133  1.00  0.00     0.059 A 
ATOM     16  Cl  UNL     1      53.945  36.184  26.315  1.00  0.00    -0.083 Cl
ATOM     17  Cl  UNL     1      53.401  39.240  25.146  1.00  0.00    -0.083 Cl
ENDBRANCH   7  10
ENDBRANCH   5   6
BRANCH   5  18
ATOM     18  C   UNL     1      53.677  33.486  18.494  1.00  0.00     0.015 C 
ATOM     19  C   UNL     1      54.925  34.097  19.145  1.00  0.00     0.010 C 
ATOM     20  C   UNL     1      53.533  34.024  17.062  1.00  0.00     0.010 C 
ENDBRANCH   5  18
ENDBRANCH   2   5
BRANCH   1  21
ATOM     21  C   UNL     1      48.952  32.448  18.028  1.00  0.00     0.193 C 
BRANCH  21  22
ATOM     22  C   UNL     1      48.398  33.772  17.504  1.00  0.00     0.029 C 
BRANCH  22  23
ATOM     23  C   UNL     1      47.112  33.624  16.672  1.00  0.00    -0.016 C 
ATOM     24  C   UNL     1      46.164  32.675  17.403  1.00  0.00     0.007 C 
ATOM     25  C   UNL     1      46.440  34.962  16.370  1.00  0.00     0.007 C 
ENDBRANCH  22  23
ENDBRANCH  21  22
BRANCH  21  26
ATOM     26  P   UNL     1      49.626  31.314  16.762  1.00  0.00     0.337 P 
ATOM     27  O   UNL     1      48.512  30.455  16.230  1.00  0.00    -0.260 OA
BRANCH  26  28
ATOM     28  O   UNL     1      50.334  32.139  15.741  1.00  0.00    -0.324 OA
ATOM     29  H   UNL     1      51.312  32.066  15.878  1.00  0.00     0.221 HD
ENDBRANCH  26  28
BRANCH  26  30
ATOM     30  O   UNL     1      50.709  30.505  17.437  1.00  0.00    -0.324 OA
ATOM     31  H   UNL     1      50.835  30.831  18.364  1.00  0.00     0.221 HD
ENDBRANCH  26  30
ENDBRANCH  21  26
ENDBRANCH   1  21
TORSDOF 10
ENDMDL
MODEL 13
REMARK VINA RESULT:    -6.238      5.030      9.191
REMARK INTER + INTRA:         -10.904
REMARK INTER:                  -9.113
REMARK INTRA:                  -1.791
REMARK UNBOUND:                -1.383
REMARK SMILES CC(C)C[C@H](C(=O)N[C@H](C(=O)Nc1ccc(Cl)c(Cl)c1)C(C)C)P(=O)(O)O
REMARK SMILES IDX 6 1 8 2 7 3 9 5 10 6 12 7 11 8 13 10 20 11 14 12 18 13 15 14
REMARK SMILES IDX 16 15 19 16 17 17 21 18 22 19 23 20 5 21 4 22 2 23 1 24 3 25
REMARK SMILES IDX 24 26 25 27 27 28 26 30
REMARK H PARENT 8 4 12 9 27 29 26 31
ROOT
ATOM      1  C   UNL     1      59.698  40.473  19.707  1.00  0.00     0.235 C 
ATOM      2  N   UNL     1      59.610  39.036  19.806  1.00  0.00    -0.343 N 
ATOM      3  O   UNL     1      58.875  41.168  19.169  1.00  0.00    -0.274 OA
ATOM      4  H   UNL     1      60.317  38.518  20.347  1.00  0.00     0.164 HD
ENDROOT
BRANCH   2   5
ATOM      5  C   UNL     1      58.550  38.325  19.160  1.00  0.00     0.174 C 
BRANCH   5   6
ATOM      6  C   UNL     1      57.604  37.578  20.040  1.00  0.00     0.247 C 
ATOM      7  N   UNL     1      57.483  38.121  21.364  1.00  0.00    -0.324 N 
ATOM      8  O   UNL     1      56.998  36.669  19.578  1.00  0.00    -0.272 OA
ATOM      9  H   UNL     1      58.064  38.938  21.604  1.00  0.00     0.170 HD
BRANCH   7  10
ATOM     10  C   UNL     1      56.602  37.598  22.382  1.00  0.00     0.042 A 
ATOM     11  C   UNL     1      55.231  37.760  22.340  1.00  0.00     0.048 A 
ATOM     12  C   UNL     1      57.213  36.958  23.442  1.00  0.00     0.028 A 
ATOM     13  C   UNL     1      54.477  37.228  23.375  1.00  0.00     0.061 A 
ATOM     14  C   UNL     1      56.466  36.438  24.470  1.00  0.00     0.024 A 
ATOM     15  C   UNL     1      55.101  36.568  24.434  1.00  0.00     0.059 A 
ATOM     16  Cl  UNL     1      52.703  37.408  23.314  1.00  0.00    -0.083 Cl
ATOM     17  Cl  UNL     1      54.232  35.858  25.815  1.00  0.00    -0.083 Cl
ENDBRANCH   7  10
ENDBRANCH   5   6
BRANCH   5  18
ATOM     18  C   UNL     1      59.091  37.375  18.071  1.00  0.00     0.015 C 
ATOM     19  C   UNL     1      60.357  36.579  18.414  1.00  0.00     0.010 C 
ATOM     20  C   UNL     1      59.254  38.023  16.687  1.00  0.00     0.010 C 
ENDBRANCH   5  18
ENDBRANCH   2   5
BRANCH   1  21
ATOM     21  C   UNL     1      60.941  41.040  20.363  1.00  0.00     0.193 C 
BRANCH  21  22
ATOM     22  C   UNL     1      62.124  40.894  19.409  1.00  0.00     0.029 C 
BRANCH  22  23
ATOM     23  C   UNL     1      63.222  39.943  19.918  1.00  0.00    -0.016 C 
ATOM     24  C   UNL     1      62.952  39.629  21.390  1.00  0.00     0.007 C 
ATOM     25  C   UNL     1      63.339  38.667  19.088  1.00  0.00     0.007 C 
ENDBRANCH  22  23
ENDBRANCH  21  22
BRANCH  21  26
ATOM     26  P   UNL     1      60.593  42.740  20.942  1.00  0.00     0.337 P 
ATOM     27  O   UNL     1      61.659  43.152  21.920  1.00  0.00    -0.260 OA
BRANCH  26  28
ATOM     28  O   UNL     1      60.463  43.613  19.739  1.00  0.00    -0.324 OA
ATOM     29  H   UNL     1      59.533  43.573  19.402  1.00  0.00     0.221 HD
ENDBRANCH  26  28
BRANCH  26  30
ATOM     30  O   UNL     1      59.216  42.713  21.563  1.00  0.00    -0.324 OA
ATOM     31  H   UNL     1      59.296  42.800  22.546  1.00  0.00     0.221 HD
ENDBRANCH  26  30
ENDBRANCH  21  26
ENDBRANCH   1  21
TORSDOF 10
ENDMDL
MODEL 14
REMARK VINA RESULT:    -6.141      7.065     10.174
REMARK INTER + INTRA:         -10.756
REMARK INTER:                  -9.717
REMARK INTRA:                  -1.039
REMARK UNBOUND:                -1.383
REMARK SMILES CC(C)C[C@H](C(=O)N[C@H](C(=O)Nc1ccc(Cl)c(Cl)c1)C(C)C)P(=O)(O)O
REMARK SMILES IDX 6 1 8 2 7 3 9 5 10 6 12 7 11 8 13 10 20 11 14 12 18 13 15 14
REMARK SMILES IDX 16 15 19 16 17 17 21 18 22 19 23 20 5 21 4 22 2 23 1 24 3 25
REMARK SMILES IDX 24 26 25 27 27 28 26 30
REMARK H PARENT 8 4 12 9 27 29 26 31
ROOT
ATOM      1  C   UNL     1      46.710  31.042  14.418  1.00  0.00     0.235 C 
ATOM      2  N   UNL     1      46.302  31.890  15.512  1.00  0.00    -0.343 N 
ATOM      3  O   UNL     1      47.464  31.379  13.542  1.00  0.00    -0.274 OA
ATOM      4  H   UNL     1      45.713  31.505  16.264  1.00  0.00     0.164 HD
ENDROOT
BRANCH   2   5
ATOM      5  C   UNL     1      46.709  33.260  15.562  1.00  0.00     0.174 C 
BRANCH   5   6
ATOM      6  C   UNL     1      47.752  33.619  16.568  1.00  0.00     0.247 C 
ATOM      7  N   UNL     1      48.805  32.649  16.690  1.00  0.00    -0.324 N 
ATOM      8  O   UNL     1      47.671  34.665  17.120  1.00  0.00    -0.272 OA
ATOM      9  H   UNL     1      48.743  31.797  16.116  1.00  0.00     0.170 HD
BRANCH   7  10
ATOM     10  C   UNL     1      49.945  32.792  17.565  1.00  0.00     0.042 A 
ATOM     11  C   UNL     1      49.982  33.702  18.604  1.00  0.00     0.048 A 
ATOM     12  C   UNL     1      51.034  31.993  17.277  1.00  0.00     0.028 A 
ATOM     13  C   UNL     1      51.131  33.767  19.377  1.00  0.00     0.061 A 
ATOM     14  C   UNL     1      52.173  32.063  18.038  1.00  0.00     0.024 A 
ATOM     15  C   UNL     1      52.221  32.943  19.089  1.00  0.00     0.059 A 
ATOM     16  Cl  UNL     1      51.176  34.919  20.739  1.00  0.00    -0.083 Cl
ATOM     17  Cl  UNL     1      53.744  32.951  20.009  1.00  0.00    -0.083 Cl
ENDBRANCH   7  10
ENDBRANCH   5   6
BRANCH   5  18
ATOM     18  C   UNL     1      45.497  34.201  15.726  1.00  0.00     0.015 C 
ATOM     19  C   UNL     1      44.586  33.952  16.936  1.00  0.00     0.010 C 
ATOM     20  C   UNL     1      44.637  34.356  14.463  1.00  0.00     0.010 C 
ENDBRANCH   5  18
ENDBRANCH   2   5
BRANCH   1  21
ATOM     21  C   UNL     1      46.099  29.656  14.479  1.00  0.00     0.193 C 
BRANCH  21  22
ATOM     22  C   UNL     1      46.563  28.848  13.269  1.00  0.00     0.029 C 
BRANCH  22  23
ATOM     23  C   UNL     1      45.655  28.995  12.036  1.00  0.00    -0.016 C 
ATOM     24  C   UNL     1      46.515  28.873  10.778  1.00  0.00     0.007 C 
ATOM     25  C   UNL     1      44.501  27.995  12.021  1.00  0.00     0.007 C 
ENDBRANCH  22  23
ENDBRANCH  21  22
BRANCH  21  26
ATOM     26  P   UNL     1      46.454  28.913  16.112  1.00  0.00     0.337 P 
ATOM     27  O   UNL     1      46.476  27.416  15.976  1.00  0.00    -0.260 OA
BRANCH  26  28
ATOM     28  O   UNL     1      47.716  29.522  16.626  1.00  0.00    -0.324 OA
ATOM     29  H   UNL     1      48.218  29.925  15.873  1.00  0.00     0.221 HD
ENDBRANCH  26  28
BRANCH  26  30
ATOM     30  O   UNL     1      45.372  29.393  17.051  1.00  0.00    -0.324 OA
ATOM     31  H   UNL     1      44.491  29.314  16.607  1.00  0.00     0.221 HD
ENDBRANCH  26  30
ENDBRANCH  21  26
ENDBRANCH   1  21
TORSDOF 10
ENDMDL
MODEL 15
REMARK VINA RESULT:    -6.123      8.860     10.461
REMARK INTER + INTRA:         -10.727
REMARK INTER:                  -9.366
REMARK INTRA:                  -1.361
REMARK UNBOUND:                -1.383
REMARK SMILES CC(C)C[C@H](C(=O)N[C@H](C(=O)Nc1ccc(Cl)c(Cl)c1)C(C)C)P(=O)(O)O
REMARK SMILES IDX 6 1 8 2 7 3 9 5 10 6 12 7 11 8 13 10 20 11 14 12 18 13 15 14
REMARK SMILES IDX 16 15 19 16 17 17 21 18 22 19 23 20 5 21 4 22 2 23 1 24 3 25
REMARK SMILES IDX 24 26 25 27 27 28 26 30
REMARK H PARENT 8 4 12 9 27 29 26 31
ROOT
ATOM      1  C   UNL     1      48.624  31.775  16.177  1.00  0.00     0.235 C 
ATOM      2  N   UNL     1      49.906  31.799  15.516  1.00  0.00    -0.343 N 
ATOM      3  O   UNL     1      47.864  30.842  16.152  1.00  0.00    -0.274 OA
ATOM      4  H   UNL     1      50.532  32.606  15.645  1.00  0.00     0.164 HD
ENDROOT
BRANCH   2   5
ATOM      5  C   UNL     1      50.315  30.711  14.683  1.00  0.00     0.174 C 
BRANCH   5   6
ATOM      6  C   UNL     1      50.800  29.478  15.370  1.00  0.00     0.247 C 
ATOM      7  N   UNL     1      50.872  29.597  16.800  1.00  0.00    -0.324 N 
ATOM      8  O   UNL     1      51.017  28.513  14.718  1.00  0.00    -0.272 OA
ATOM      9  H   UNL     1      50.622  30.503  17.222  1.00  0.00     0.170 HD
BRANCH   7  10
ATOM     10  C   UNL     1      51.273  28.529  17.686  1.00  0.00     0.042 A 
ATOM     11  C   UNL     1      52.533  27.965  17.657  1.00  0.00     0.048 A 
ATOM     12  C   UNL     1      50.300  28.058  18.547  1.00  0.00     0.028 A 
ATOM     13  C   UNL     1      52.811  26.935  18.543  1.00  0.00     0.061 A 
ATOM     14  C   UNL     1      50.573  27.034  19.418  1.00  0.00     0.024 A 
ATOM     15  C   UNL     1      51.827  26.477  19.421  1.00  0.00     0.059 A 
ATOM     16  Cl  UNL     1      54.445  26.220  18.532  1.00  0.00    -0.083 Cl
ATOM     17  Cl  UNL     1      52.072  25.158  20.590  1.00  0.00    -0.083 Cl
ENDBRANCH   7  10
ENDBRANCH   5   6
BRANCH   5  18
ATOM     18  C   UNL     1      51.365  31.161  13.644  1.00  0.00     0.015 C 
ATOM     19  C   UNL     1      52.546  31.989  14.169  1.00  0.00     0.010 C 
ATOM     20  C   UNL     1      50.776  31.843  12.400  1.00  0.00     0.010 C 
ENDBRANCH   5  18
ENDBRANCH   2   5
BRANCH   1  21
ATOM     21  C   UNL     1      48.318  33.055  16.929  1.00  0.00     0.193 C 
BRANCH  21  22
ATOM     22  C   UNL     1      46.808  33.179  17.118  1.00  0.00     0.029 C 
BRANCH  22  23
ATOM     23  C   UNL     1      46.146  34.212  16.188  1.00  0.00    -0.016 C 
ATOM     24  C   UNL     1      45.911  33.561  14.825  1.00  0.00     0.007 C 
ATOM     25  C   UNL     1      44.853  34.788  16.761  1.00  0.00     0.007 C 
ENDBRANCH  22  23
ENDBRANCH  21  22
BRANCH  21  26
ATOM     26  P   UNL     1      49.316  33.105  18.461  1.00  0.00     0.337 P 
ATOM     27  O   UNL     1      50.405  32.072  18.371  1.00  0.00    -0.260 OA
BRANCH  26  28
ATOM     28  O   UNL     1      49.786  34.508  18.653  1.00  0.00    -0.324 OA
ATOM     29  H   UNL     1      49.725  34.997  17.794  1.00  0.00     0.221 HD
ENDBRANCH  26  28
BRANCH  26  30
ATOM     30  O   UNL     1      48.365  32.846  19.606  1.00  0.00    -0.324 OA
ATOM     31  H   UNL     1      48.858  32.429  20.357  1.00  0.00     0.221 HD
ENDBRANCH  26  30
ENDBRANCH  21  26
ENDBRANCH   1  21
TORSDOF 10
ENDMDL
MODEL 16
REMARK VINA RESULT:    -6.119      7.319     10.059
REMARK INTER + INTRA:         -10.721
REMARK INTER:                  -9.087
REMARK INTRA:                  -1.634
REMARK UNBOUND:                -1.383
REMARK SMILES CC(C)C[C@H](C(=O)N[C@H](C(=O)Nc1ccc(Cl)c(Cl)c1)C(C)C)P(=O)(O)O
REMARK SMILES IDX 6 1 8 2 7 3 9 5 10 6 12 7 11 8 13 10 20 11 14 12 18 13 15 14
REMARK SMILES IDX 16 15 19 16 17 17 21 18 22 19 23 20 5 21 4 22 2 23 1 24 3 25
REMARK SMILES IDX 24 26 25 27 27 28 26 30
REMARK H PARENT 8 4 12 9 27 29 26 31
ROOT
ATOM      1  C   UNL     1      51.104  30.097  18.202  1.00  0.00     0.235 C 
ATOM      2  N   UNL     1      51.325  31.518  18.085  1.00  0.00    -0.343 N 
ATOM      3  O   UNL     1      50.268  29.594  18.908  1.00  0.00    -0.274 OA
ATOM      4  H   UNL     1      52.009  31.874  17.404  1.00  0.00     0.164 HD
ENDROOT
BRANCH   2   5
ATOM      5  C   UNL     1      50.601  32.436  18.908  1.00  0.00     0.174 C 
BRANCH   5   6
ATOM      6  C   UNL     1      49.218  32.791  18.471  1.00  0.00     0.247 C 
ATOM      7  N   UNL     1      49.072  32.926  17.048  1.00  0.00    -0.324 N 
ATOM      8  O   UNL     1      48.366  32.867  19.291  1.00  0.00    -0.272 OA
ATOM      9  H   UNL     1      49.912  32.802  16.464  1.00  0.00     0.170 HD
BRANCH   7  10
ATOM     10  C   UNL     1      47.826  33.224  16.382  1.00  0.00     0.042 A 
ATOM     11  C   UNL     1      47.332  32.462  15.342  1.00  0.00     0.048 A 
ATOM     12  C   UNL     1      47.164  34.357  16.814  1.00  0.00     0.028 A 
ATOM     13  C   UNL     1      46.131  32.843  14.764  1.00  0.00     0.061 A 
ATOM     14  C   UNL     1      45.979  34.737  16.236  1.00  0.00     0.024 A 
ATOM     15  C   UNL     1      45.460  33.980  15.218  1.00  0.00     0.059 A 
ATOM     16  Cl  UNL     1      45.471  31.848  13.438  1.00  0.00    -0.083 Cl
ATOM     17  Cl  UNL     1      43.920  34.563  14.542  1.00  0.00    -0.083 Cl
ENDBRANCH   7  10
ENDBRANCH   5   6
BRANCH   5  18
ATOM     18  C   UNL     1      51.406  33.730  19.151  1.00  0.00     0.015 C 
ATOM     19  C   UNL     1      52.870  33.731  18.690  1.00  0.00     0.010 C 
ATOM     20  C   UNL     1      51.322  34.271  20.586  1.00  0.00     0.010 C 
ENDBRANCH   5  18
ENDBRANCH   2   5
BRANCH   1  21
ATOM     21  C   UNL     1      52.033  29.277  17.329  1.00  0.00     0.193 C 
BRANCH  21  22
ATOM     22  C   UNL     1      51.523  27.839  17.263  1.00  0.00     0.029 C 
BRANCH  22  23
ATOM     23  C   UNL     1      52.423  26.824  17.988  1.00  0.00    -0.016 C 
ATOM     24  C   UNL     1      53.861  27.343  17.966  1.00  0.00     0.007 C 
ATOM     25  C   UNL     1      51.960  26.525  19.412  1.00  0.00     0.007 C 
ENDBRANCH  22  23
ENDBRANCH  21  22
BRANCH  21  26
ATOM     26  P   UNL     1      52.244  30.118  15.718  1.00  0.00     0.337 P 
ATOM     27  O   UNL     1      50.951  30.788  15.342  1.00  0.00    -0.260 OA
BRANCH  26  28
ATOM     28  O   UNL     1      53.421  31.028  15.830  1.00  0.00    -0.324 OA
ATOM     29  H   UNL     1      53.284  31.653  16.586  1.00  0.00     0.221 HD
ENDBRANCH  26  28
BRANCH  26  30
ATOM     30  O   UNL     1      52.656  29.057  14.725  1.00  0.00    -0.324 OA
ATOM     31  H   UNL     1      52.777  28.194  15.196  1.00  0.00     0.221 HD
ENDBRANCH  26  30
ENDBRANCH  21  26
ENDBRANCH   1  21
TORSDOF 10
ENDMDL
MODEL 17
REMARK VINA RESULT:    -6.071      7.243     10.554
REMARK INTER + INTRA:         -10.648
REMARK INTER:                 -10.262
REMARK INTRA:                  -0.385
REMARK UNBOUND:                -1.383
REMARK SMILES CC(C)C[C@H](C(=O)N[C@H](C(=O)Nc1ccc(Cl)c(Cl)c1)C(C)C)P(=O)(O)O
REMARK SMILES IDX 6 1 8 2 7 3 9 5 10 6 12 7 11 8 13 10 20 11 14 12 18 13 15 14
REMARK SMILES IDX 16 15 19 16 17 17 21 18 22 19 23 20 5 21 4 22 2 23 1 24 3 25
REMARK SMILES IDX 24 26 25 27 27 28 26 30
REMARK H PARENT 8 4 12 9 27 29 26 31
ROOT
ATOM      1  C   UNL     1      46.385  32.689  15.036  1.00  0.00     0.235 C 
ATOM      2  N   UNL     1      45.785  31.589  15.750  1.00  0.00    -0.343 N 
ATOM      3  O   UNL     1      47.557  32.768  14.770  1.00  0.00    -0.274 OA
ATOM      4  H   UNL     1      44.763  31.558  15.875  1.00  0.00     0.164 HD
ENDROOT
BRANCH   2   5
ATOM      5  C   UNL     1      46.595  30.540  16.286  1.00  0.00     0.174 C 
BRANCH   5   6
ATOM      6  C   UNL     1      48.007  30.885  16.630  1.00  0.00     0.247 C 
ATOM      7  N   UNL     1      48.133  31.971  17.562  1.00  0.00    -0.324 N 
ATOM      8  O   UNL     1      48.879  30.221  16.178  1.00  0.00    -0.272 OA
ATOM      9  H   UNL     1      47.270  32.431  17.884  1.00  0.00     0.170 HD
BRANCH   7  10
ATOM     10  C   UNL     1      49.391  32.460  18.076  1.00  0.00     0.042 A 
ATOM     11  C   UNL     1      50.475  32.733  17.266  1.00  0.00     0.048 A 
ATOM     12  C   UNL     1      49.473  32.598  19.448  1.00  0.00     0.028 A 
ATOM     13  C   UNL     1      51.641  33.187  17.862  1.00  0.00     0.061 A 
ATOM     14  C   UNL     1      50.629  33.040  20.039  1.00  0.00     0.024 A 
ATOM     15  C   UNL     1      51.709  33.340  19.249  1.00  0.00     0.059 A 
ATOM     16  Cl  UNL     1      53.038  33.569  16.821  1.00  0.00    -0.083 Cl
ATOM     17  Cl  UNL     1      53.156  33.905  20.118  1.00  0.00    -0.083 Cl
ENDBRANCH   7  10
ENDBRANCH   5   6
BRANCH   5  18
ATOM     18  C   UNL     1      46.583  29.296  15.373  1.00  0.00     0.015 C 
ATOM     19  C   UNL     1      46.570  29.549  13.859  1.00  0.00     0.010 C 
ATOM     20  C   UNL     1      45.506  28.259  15.727  1.00  0.00     0.010 C 
ENDBRANCH   5  18
ENDBRANCH   2   5
BRANCH   1  21
ATOM     21  C   UNL     1      45.385  33.755  14.634  1.00  0.00     0.193 C 
BRANCH  21  22
ATOM     22  C   UNL     1      44.310  33.128  13.749  1.00  0.00     0.029 C 
BRANCH  22  23
ATOM     23  C   UNL     1      44.646  33.154  12.248  1.00  0.00    -0.016 C 
ATOM     24  C   UNL     1      44.503  31.737  11.691  1.00  0.00     0.007 C 
ATOM     25  C   UNL     1      43.794  34.150  11.463  1.00  0.00     0.007 C 
ENDBRANCH  22  23
ENDBRANCH  21  22
BRANCH  21  26
ATOM     26  P   UNL     1      44.780  34.608  16.135  1.00  0.00     0.337 P 
ATOM     27  O   UNL     1      45.878  35.478  16.681  1.00  0.00    -0.260 OA
BRANCH  26  28
ATOM     28  O   UNL     1      43.521  35.324  15.775  1.00  0.00    -0.324 OA
ATOM     29  H   UNL     1      43.193  35.828  16.562  1.00  0.00     0.221 HD
ENDBRANCH  26  28
BRANCH  26  30
ATOM     30  O   UNL     1      44.358  33.530  17.106  1.00  0.00    -0.324 OA
ATOM     31  H   UNL     1      43.819  32.849  16.629  1.00  0.00     0.221 HD
ENDBRANCH  26  30
ENDBRANCH  21  26
ENDBRANCH   1  21
TORSDOF 10
ENDMDL
MODEL 18
REMARK VINA RESULT:    -5.922      4.975      8.387
REMARK INTER + INTRA:         -10.420
REMARK INTER:                  -8.841
REMARK INTRA:                  -1.580
REMARK UNBOUND:                -1.383
REMARK SMILES CC(C)C[C@H](C(=O)N[C@H](C(=O)Nc1ccc(Cl)c(Cl)c1)C(C)C)P(=O)(O)O
REMARK SMILES IDX 6 1 8 2 7 3 9 5 10 6 12 7 11 8 13 10 20 11 14 12 18 13 15 14
REMARK SMILES IDX 16 15 19 16 17 17 21 18 22 19 23 20 5 21 4 22 2 23 1 24 3 25
REMARK SMILES IDX 24 26 25 27 27 28 26 30
REMARK H PARENT 8 4 12 9 27 29 26 31
ROOT
ATOM      1  C   UNL     1      59.236  38.499  18.430  1.00  0.00     0.235 C 
ATOM      2  N   UNL     1      58.833  38.076  19.750  1.00  0.00    -0.343 N 
ATOM      3  O   UNL     1      58.559  38.379  17.442  1.00  0.00    -0.274 OA
ATOM      4  H   UNL     1      59.438  38.281  20.558  1.00  0.00     0.164 HD
ENDROOT
BRANCH   2   5
ATOM      5  C   UNL     1      57.601  37.377  19.946  1.00  0.00     0.174 C 
BRANCH   5   6
ATOM      6  C   UNL     1      56.745  37.821  21.085  1.00  0.00     0.247 C 
ATOM      7  N   UNL     1      55.884  36.794  21.604  1.00  0.00    -0.324 N 
ATOM      8  O   UNL     1      56.882  38.922  21.502  1.00  0.00    -0.272 OA
ATOM      9  H   UNL     1      55.902  35.872  21.144  1.00  0.00     0.170 HD
BRANCH   7  10
ATOM     10  C   UNL     1      54.995  36.969  22.728  1.00  0.00     0.042 A 
ATOM     11  C   UNL     1      55.430  36.940  24.039  1.00  0.00     0.048 A 
ATOM     12  C   UNL     1      53.656  37.122  22.425  1.00  0.00     0.028 A 
ATOM     13  C   UNL     1      54.492  37.106  25.045  1.00  0.00     0.061 A 
ATOM     14  C   UNL     1      52.727  37.280  23.421  1.00  0.00     0.024 A 
ATOM     15  C   UNL     1      53.143  37.277  24.728  1.00  0.00     0.059 A 
ATOM     16  Cl  UNL     1      55.049  37.098  26.740  1.00  0.00    -0.083 Cl
ATOM     17  Cl  UNL     1      51.855  37.490  25.938  1.00  0.00    -0.083 Cl
ENDBRANCH   7  10
ENDBRANCH   5   6
BRANCH   5  18
ATOM     18  C   UNL     1      57.829  35.853  20.043  1.00  0.00     0.015 C 
ATOM     19  C   UNL     1      59.207  35.389  20.532  1.00  0.00     0.010 C 
ATOM     20  C   UNL     1      57.446  35.072  18.777  1.00  0.00     0.010 C 
ENDBRANCH   5  18
ENDBRANCH   2   5
BRANCH   1  21
ATOM     21  C   UNL     1      60.614  39.129  18.402  1.00  0.00     0.193 C 
BRANCH  21  22
ATOM     22  C   UNL     1      61.012  39.402  16.953  1.00  0.00     0.029 C 
BRANCH  22  23
ATOM     23  C   UNL     1      62.159  38.512  16.443  1.00  0.00    -0.016 C 
ATOM     24  C   UNL     1      62.897  37.929  17.648  1.00  0.00     0.007 C 
ATOM     25  C   UNL     1      61.685  37.413  15.495  1.00  0.00     0.007 C 
ENDBRANCH  22  23
ENDBRANCH  21  22
BRANCH  21  26
ATOM     26  P   UNL     1      60.636  40.578  19.518  1.00  0.00     0.337 P 
ATOM     27  O   UNL     1      60.852  40.107  20.929  1.00  0.00    -0.260 OA
BRANCH  26  28
ATOM     28  O   UNL     1      61.660  41.534  19.004  1.00  0.00    -0.324 OA
ATOM     29  H   UNL     1      61.607  42.380  19.516  1.00  0.00     0.221 HD
ENDBRANCH  26  28
BRANCH  26  30
ATOM     30  O   UNL     1      59.311  41.283  19.339  1.00  0.00    -0.324 OA
ATOM     31  H   UNL     1      59.208  41.975  20.039  1.00  0.00     0.221 HD
ENDBRANCH  26  30
ENDBRANCH  21  26
ENDBRANCH   1  21
TORSDOF 10
ENDMDL
MODEL 19
REMARK VINA RESULT:    -5.905      7.764     10.402
REMARK INTER + INTRA:         -10.395
REMARK INTER:                  -9.145
REMARK INTRA:                  -1.250
REMARK UNBOUND:                -1.383
REMARK SMILES CC(C)C[C@H](C(=O)N[C@H](C(=O)Nc1ccc(Cl)c(Cl)c1)C(C)C)P(=O)(O)O
REMARK SMILES IDX 6 1 8 2 7 3 9 5 10 6 12 7 11 8 13 10 20 11 14 12 18 13 15 14
REMARK SMILES IDX 16 15 19 16 17 17 21 18 22 19 23 20 5 21 4 22 2 23 1 24 3 25
REMARK SMILES IDX 24 26 25 27 27 28 26 30
REMARK H PARENT 8 4 12 9 27 29 26 31
ROOT
ATOM      1  C   UNL     1      48.240  31.539  16.233  1.00  0.00     0.235 C 
ATOM      2  N   UNL     1      48.730  31.451  17.588  1.00  0.00    -0.343 N 
ATOM      3  O   UNL     1      48.935  31.737  15.271  1.00  0.00    -0.274 OA
ATOM      4  H   UNL     1      48.083  31.205  18.350  1.00  0.00     0.164 HD
ENDROOT
BRANCH   2   5
ATOM      5  C   UNL     1      50.107  31.703  17.881  1.00  0.00     0.174 C 
BRANCH   5   6
ATOM      6  C   UNL     1      50.980  30.512  18.101  1.00  0.00     0.247 C 
ATOM      7  N   UNL     1      50.259  29.278  18.248  1.00  0.00    -0.324 N 
ATOM      8  O   UNL     1      52.156  30.658  18.073  1.00  0.00    -0.272 OA
ATOM      9  H   UNL     1      49.230  29.316  18.222  1.00  0.00     0.170 HD
BRANCH   7  10
ATOM     10  C   UNL     1      50.883  27.988  18.430  1.00  0.00     0.042 A 
ATOM     11  C   UNL     1      51.797  27.466  17.536  1.00  0.00     0.048 A 
ATOM     12  C   UNL     1      50.476  27.268  19.536  1.00  0.00     0.028 A 
ATOM     13  C   UNL     1      52.327  26.213  17.798  1.00  0.00     0.061 A 
ATOM     14  C   UNL     1      50.995  26.025  19.791  1.00  0.00     0.024 A 
ATOM     15  C   UNL     1      51.923  25.499  18.928  1.00  0.00     0.059 A 
ATOM     16  Cl  UNL     1      53.531  25.543  16.664  1.00  0.00    -0.083 Cl
ATOM     17  Cl  UNL     1      52.531  23.882  19.355  1.00  0.00    -0.083 Cl
ENDBRANCH   7  10
ENDBRANCH   5   6
BRANCH   5  18
ATOM     18  C   UNL     1      50.261  32.674  19.071  1.00  0.00     0.015 C 
ATOM     19  C   UNL     1      48.969  33.262  19.655  1.00  0.00     0.010 C 
ATOM     20  C   UNL     1      51.279  33.802  18.843  1.00  0.00     0.010 C 
ENDBRANCH   5  18
ENDBRANCH   2   5
BRANCH   1  21
ATOM     21  C   UNL     1      46.741  31.344  16.129  1.00  0.00     0.193 C 
BRANCH  21  22
ATOM     22  C   UNL     1      46.193  32.241  15.021  1.00  0.00     0.029 C 
BRANCH  22  23
ATOM     23  C   UNL     1      45.397  33.453  15.535  1.00  0.00    -0.016 C 
ATOM     24  C   UNL     1      46.355  34.390  16.271  1.00  0.00     0.007 C 
ATOM     25  C   UNL     1      44.643  34.185  14.427  1.00  0.00     0.007 C 
ENDBRANCH  22  23
ENDBRANCH  21  22
BRANCH  21  26
ATOM     26  P   UNL     1      46.375  29.560  15.960  1.00  0.00     0.337 P 
ATOM     27  O   UNL     1      46.263  29.219  14.500  1.00  0.00    -0.260 OA
BRANCH  26  28
ATOM     28  O   UNL     1      47.424  28.807  16.709  1.00  0.00    -0.324 OA
ATOM     29  H   UNL     1      47.018  28.008  17.130  1.00  0.00     0.221 HD
ENDBRANCH  26  28
BRANCH  26  30
ATOM     30  O   UNL     1      45.091  29.307  16.715  1.00  0.00    -0.324 OA
ATOM     31  H   UNL     1      45.301  28.931  17.607  1.00  0.00     0.221 HD
ENDBRANCH  26  30
ENDBRANCH  21  26
ENDBRANCH   1  21
TORSDOF 10
ENDMDL
MODEL 20
REMARK VINA RESULT:    -5.817      5.133      8.160
REMARK INTER + INTRA:         -10.260
REMARK INTER:                  -9.099
REMARK INTRA:                  -1.161
REMARK UNBOUND:                -1.383
REMARK SMILES CC(C)C[C@H](C(=O)N[C@H](C(=O)Nc1ccc(Cl)c(Cl)c1)C(C)C)P(=O)(O)O
REMARK SMILES IDX 6 1 8 2 7 3 9 5 10 6 12 7 11 8 13 10 20 11 14 12 18 13 15 14
REMARK SMILES IDX 16 15 19 16 17 17 21 18 22 19 23 20 5 21 4 22 2 23 1 24 3 25
REMARK SMILES IDX 24 26 25 27 27 28 26 30
REMARK H PARENT 8 4 12 9 27 29 26 31
ROOT
ATOM      1  C   UNL     1      50.048  29.671  16.862  1.00  0.00     0.235 C 
ATOM      2  N   UNL     1      48.968  30.465  17.396  1.00  0.00    -0.343 N 
ATOM      3  O   UNL     1      51.111  30.115  16.516  1.00  0.00    -0.274 OA
ATOM      4  H   UNL     1      48.115  30.002  17.740  1.00  0.00     0.164 HD
ENDROOT
BRANCH   2   5
ATOM      5  C   UNL     1      49.072  31.890  17.452  1.00  0.00     0.174 C 
BRANCH   5   6
ATOM      6  C   UNL     1      49.842  32.468  18.592  1.00  0.00     0.247 C 
ATOM      7  N   UNL     1      50.901  33.354  18.193  1.00  0.00    -0.324 N 
ATOM      8  O   UNL     1      49.494  32.216  19.697  1.00  0.00    -0.272 OA
ATOM      9  H   UNL     1      51.060  33.491  17.185  1.00  0.00     0.170 HD
BRANCH   7  10
ATOM     10  C   UNL     1      51.757  34.064  19.114  1.00  0.00     0.042 A 
ATOM     11  C   UNL     1      53.133  34.077  18.998  1.00  0.00     0.048 A 
ATOM     12  C   UNL     1      51.123  34.702  20.163  1.00  0.00     0.028 A 
ATOM     13  C   UNL     1      53.864  34.781  19.944  1.00  0.00     0.061 A 
ATOM     14  C   UNL     1      51.847  35.392  21.102  1.00  0.00     0.024 A 
ATOM     15  C   UNL     1      53.213  35.437  20.991  1.00  0.00     0.059 A 
ATOM     16  Cl  UNL     1      55.640  34.827  19.786  1.00  0.00    -0.083 Cl
ATOM     17  Cl  UNL     1      54.052  36.359  22.261  1.00  0.00    -0.083 Cl
ENDBRANCH   7  10
ENDBRANCH   5   6
BRANCH   5  18
ATOM     18  C   UNL     1      47.682  32.559  17.385  1.00  0.00     0.015 C 
ATOM     19  C   UNL     1      46.615  31.854  16.536  1.00  0.00     0.010 C 
ATOM     20  C   UNL     1      47.713  34.053  17.029  1.00  0.00     0.010 C 
ENDBRANCH   5  18
ENDBRANCH   2   5
BRANCH   1  21
ATOM     21  C   UNL     1      49.718  28.193  16.786  1.00  0.00     0.193 C 
BRANCH  21  22
ATOM     22  C   UNL     1      49.745  27.598  18.192  1.00  0.00     0.029 C 
BRANCH  22  23
ATOM     23  C   UNL     1      51.161  27.325  18.727  1.00  0.00    -0.016 C 
ATOM     24  C   UNL     1      51.056  26.392  19.933  1.00  0.00     0.007 C 
ATOM     25  C   UNL     1      52.101  26.759  17.665  1.00  0.00     0.007 C 
ENDBRANCH  22  23
ENDBRANCH  21  22
BRANCH  21  26
ATOM     26  P   UNL     1      48.156  27.972  15.861  1.00  0.00     0.337 P 
ATOM     27  O   UNL     1      48.181  28.849  14.639  1.00  0.00    -0.260 OA
BRANCH  26  28
ATOM     28  O   UNL     1      47.987  26.514  15.592  1.00  0.00    -0.324 OA
ATOM     29  H   UNL     1      47.390  26.120  16.276  1.00  0.00     0.221 HD
ENDBRANCH  26  28
BRANCH  26  30
ATOM     30  O   UNL     1      47.036  28.332  16.809  1.00  0.00    -0.324 OA
ATOM     31  H   UNL     1      46.266  28.680  16.293  1.00  0.00     0.221 HD
ENDBRANCH  26  30
ENDBRANCH  21  26
ENDBRANCH   1  21
TORSDOF 10
ENDMDL
