MODEL 1
REMARK VINA RESULT:    -8.667      0.000      0.000
REMARK INTER + INTRA:         -14.227
REMARK INTER:                 -13.227
REMARK INTRA:                  -1.000
REMARK UNBOUND:                -1.000
REMARK SMILES CC(C)C[C@H](C(=O)Nc1cnc(-c2ccc(OC(C)C)cc2)nc1)P(=O)(O)O
REMARK SMILES IDX 9 1 10 2 24 3 12 4 11 5 23 6 8 7 6 8 7 9 5 11 4 12 2 13 1 14
REMARK SMILES IDX 3 15 25 16 26 17 28 18 27 20 13 22 14 23 22 24 15 25 21 26
REMARK SMILES IDX 16 27 17 28 18 29 19 30 20 31
REMARK H PARENT 8 10 28 19 27 21
ROOT
ATOM      1  C   UNL     1      51.936  34.424  20.468  1.00  0.00     0.078 A 
ATOM      2  C   UNL     1      50.722  33.869  20.834  1.00  0.00     0.141 A 
ATOM      3  C   UNL     1      52.217  34.617  19.147  1.00  0.00     0.141 A 
ATOM      4  C   UNL     1      50.206  33.684  18.561  1.00  0.00     0.159 A 
ATOM      5  N   UNL     1      49.887  33.495  19.848  1.00  0.00    -0.234 NA
ATOM      6  N   UNL     1      51.345  34.190  18.223  1.00  0.00    -0.234 NA
ENDROOT
BRANCH   1   7
ATOM      7  N   UNL     1      52.926  34.911  21.407  1.00  0.00    -0.323 N 
ATOM      8  C   UNL     1      53.137  36.268  21.695  1.00  0.00     0.239 C 
ATOM      9  O   UNL     1      52.478  37.173  21.219  1.00  0.00    -0.274 OA
ATOM     10  H   UNL     1      53.511  34.217  21.895  1.00  0.00     0.170 HD
BRANCH   8  11
ATOM     11  C   UNL     1      54.313  36.407  22.602  1.00  0.00     0.194 C 
BRANCH  11  12
ATOM     12  C   UNL     1      55.114  37.608  22.069  1.00  0.00     0.029 C 
BRANCH  12  13
ATOM     13  C   UNL     1      56.522  37.371  21.505  1.00  0.00    -0.016 C 
ATOM     14  C   UNL     1      57.467  37.012  22.664  1.00  0.00     0.007 C 
ATOM     15  C   UNL     1      56.477  36.334  20.388  1.00  0.00     0.007 C 
ENDBRANCH  12  13
ENDBRANCH  11  12
BRANCH  11  16
ATOM     16  P   UNL     1      53.792  36.569  24.325  1.00  0.00     0.337 P 
ATOM     17  O   UNL     1      54.905  37.368  25.032  1.00  0.00    -0.260 OA
BRANCH  16  18
ATOM     18  O   UNL     1      53.667  35.136  24.921  1.00  0.00    -0.324 OA
ATOM     19  H   UNL     1      52.940  34.649  24.458  1.00  0.00     0.221 HD
ENDBRANCH  16  18
BRANCH  16  20
ATOM     20  O   UNL     1      52.462  37.235  24.312  1.00  0.00    -0.324 OA
ATOM     21  H   UNL     1      51.781  36.618  24.680  1.00  0.00     0.221 HD
ENDBRANCH  16  20
ENDBRANCH  11  16
ENDBRANCH   8  11
ENDBRANCH   1   7
BRANCH   4  22
ATOM     22  C   UNL     1      49.269  33.335  17.391  1.00  0.00     0.019 A 
ATOM     23  C   UNL     1      49.611  32.496  16.346  1.00  0.00     0.016 A 
ATOM     24  C   UNL     1      48.054  34.004  17.324  1.00  0.00     0.016 A 
ATOM     25  C   UNL     1      48.706  32.249  15.313  1.00  0.00     0.047 A 
ATOM     26  C   UNL     1      47.164  33.775  16.283  1.00  0.00     0.047 A 
ATOM     27  C   UNL     1      47.485  32.879  15.280  1.00  0.00     0.119 A 
BRANCH  27  28
ATOM     28  O   UNL     1      46.595  32.654  14.207  1.00  0.00    -0.491 OA
BRANCH  28  29
ATOM     29  C   UNL     1      45.228  32.924  14.333  1.00  0.00     0.167 C 
ATOM     30  C   UNL     1      44.919  34.268  13.676  1.00  0.00     0.052 C 
ATOM     31  C   UNL     1      44.449  31.769  13.726  1.00  0.00     0.052 C 
ENDBRANCH  28  29
ENDBRANCH  27  28
ENDBRANCH   4  22
TORSDOF 10
ENDMDL
MODEL 2
REMARK VINA RESULT:    -8.477      1.805      2.457
REMARK INTER + INTRA:         -13.937
REMARK INTER:                 -12.888
REMARK INTRA:                  -1.049
REMARK UNBOUND:                -1.000
REMARK SMILES CC(C)C[C@H](C(=O)Nc1cnc(-c2ccc(OC(C)C)cc2)nc1)P(=O)(O)O
REMARK SMILES IDX 9 1 10 2 24 3 12 4 11 5 23 6 8 7 6 8 7 9 5 11 4 12 2 13 1 14
REMARK SMILES IDX 3 15 25 16 26 17 28 18 27 20 13 22 14 23 22 24 15 25 21 26
REMARK SMILES IDX 16 27 17 28 18 29 19 30 20 31
REMARK H PARENT 8 10 28 19 27 21
ROOT
ATOM      1  C   UNL     1      52.081  34.839  20.881  1.00  0.00     0.078 A 
ATOM      2  C   UNL     1      50.977  34.069  21.201  1.00  0.00     0.141 A 
ATOM      3  C   UNL     1      52.337  35.137  19.574  1.00  0.00     0.141 A 
ATOM      4  C   UNL     1      50.523  33.899  18.914  1.00  0.00     0.159 A 
ATOM      5  N   UNL     1      50.229  33.601  20.186  1.00  0.00    -0.234 NA
ATOM      6  N   UNL     1      51.561  34.608  18.617  1.00  0.00    -0.234 NA
ENDROOT
BRANCH   1   7
ATOM      7  N   UNL     1      52.963  35.446  21.856  1.00  0.00    -0.323 N 
ATOM      8  C   UNL     1      53.117  36.831  22.024  1.00  0.00     0.239 C 
ATOM      9  O   UNL     1      52.490  37.664  21.398  1.00  0.00    -0.274 OA
ATOM     10  H   UNL     1      53.512  34.822  22.465  1.00  0.00     0.170 HD
BRANCH   8  11
ATOM     11  C   UNL     1      54.194  37.094  23.021  1.00  0.00     0.194 C 
BRANCH  11  12
ATOM     12  C   UNL     1      53.938  36.118  24.183  1.00  0.00     0.029 C 
BRANCH  12  13
ATOM     13  C   UNL     1      53.537  36.682  25.553  1.00  0.00    -0.016 C 
ATOM     14  C   UNL     1      54.784  37.272  26.232  1.00  0.00     0.007 C 
ATOM     15  C   UNL     1      52.380  37.664  25.403  1.00  0.00     0.007 C 
ENDBRANCH  12  13
ENDBRANCH  11  12
BRANCH  11  16
ATOM     16  P   UNL     1      55.830  36.940  22.271  1.00  0.00     0.337 P 
ATOM     17  O   UNL     1      56.137  38.310  21.633  1.00  0.00    -0.260 OA
BRANCH  16  18
ATOM     18  O   UNL     1      55.754  35.823  21.188  1.00  0.00    -0.324 OA
ATOM     19  H   UNL     1      55.732  36.237  20.289  1.00  0.00     0.221 HD
ENDBRANCH  16  18
BRANCH  16  20
ATOM     20  O   UNL     1      56.766  36.536  23.355  1.00  0.00    -0.324 OA
ATOM     21  H   UNL     1      56.249  36.315  24.170  1.00  0.00     0.221 HD
ENDBRANCH  16  20
ENDBRANCH  11  16
ENDBRANCH   8  11
ENDBRANCH   1   7
BRANCH   4  22
ATOM     22  C   UNL     1      49.672  33.448  17.714  1.00  0.00     0.019 A 
ATOM     23  C   UNL     1      50.109  32.572  16.737  1.00  0.00     0.016 A 
ATOM     24  C   UNL     1      48.434  34.056  17.544  1.00  0.00     0.016 A 
ATOM     25  C   UNL     1      49.278  32.231  15.670  1.00  0.00     0.047 A 
ATOM     26  C   UNL     1      47.618  33.732  16.469  1.00  0.00     0.047 A 
ATOM     27  C   UNL     1      48.034  32.802  15.534  1.00  0.00     0.119 A 
BRANCH  27  28
ATOM     28  O   UNL     1      47.219  32.481  14.428  1.00  0.00    -0.491 OA
BRANCH  28  29
ATOM     29  C   UNL     1      45.848  32.246  14.584  1.00  0.00     0.167 C 
ATOM     30  C   UNL     1      45.066  33.303  13.806  1.00  0.00     0.052 C 
ATOM     31  C   UNL     1      45.547  30.826  14.132  1.00  0.00     0.052 C 
ENDBRANCH  28  29
ENDBRANCH  27  28
ENDBRANCH   4  22
TORSDOF 10
ENDMDL
MODEL 3
REMARK VINA RESULT:    -8.150      0.758      1.225
REMARK INTER + INTRA:         -13.439
REMARK INTER:                 -12.411
REMARK INTRA:                  -1.028
REMARK UNBOUND:                -1.000
REMARK SMILES CC(C)C[C@H](C(=O)Nc1cnc(-c2ccc(OC(C)C)cc2)nc1)P(=O)(O)O
REMARK SMILES IDX 9 1 10 2 24 3 12 4 11 5 23 6 8 7 6 8 7 9 5 11 4 12 2 13 1 14
REMARK SMILES IDX 3 15 25 16 26 17 28 18 27 20 13 22 14 23 22 24 15 25 21 26
REMARK SMILES IDX 16 27 17 28 18 29 19 30 20 31
REMARK H PARENT 8 10 28 19 27 21
ROOT
ATOM      1  C   UNL     1      52.197  34.651  20.726  1.00  0.00     0.078 A 
ATOM      2  C   UNL     1      51.053  33.971  21.104  1.00  0.00     0.141 A 
ATOM      3  C   UNL     1      52.387  34.972  19.414  1.00  0.00     0.141 A 
ATOM      4  C   UNL     1      50.425  33.927  18.853  1.00  0.00     0.159 A 
ATOM      5  N   UNL     1      50.195  33.610  20.134  1.00  0.00    -0.234 NA
ATOM      6  N   UNL     1      51.500  34.550  18.502  1.00  0.00    -0.234 NA
ENDROOT
BRANCH   1   7
ATOM      7  N   UNL     1      53.198  35.141  21.652  1.00  0.00    -0.323 N 
ATOM      8  C   UNL     1      53.384  36.496  21.966  1.00  0.00     0.239 C 
ATOM      9  O   UNL     1      52.692  37.395  21.527  1.00  0.00    -0.274 OA
ATOM     10  H   UNL     1      53.812  34.451  22.109  1.00  0.00     0.170 HD
BRANCH   8  11
ATOM     11  C   UNL     1      54.578  36.643  22.848  1.00  0.00     0.194 C 
BRANCH  11  12
ATOM     12  C   UNL     1      55.478  37.688  22.165  1.00  0.00     0.029 C 
BRANCH  12  13
ATOM     13  C   UNL     1      56.855  37.256  21.642  1.00  0.00    -0.016 C 
ATOM     14  C   UNL     1      57.693  36.737  22.822  1.00  0.00     0.007 C 
ATOM     15  C   UNL     1      56.698  36.261  20.498  1.00  0.00     0.007 C 
ENDBRANCH  12  13
ENDBRANCH  11  12
BRANCH  11  16
ATOM     16  P   UNL     1      54.094  37.071  24.535  1.00  0.00     0.337 P 
ATOM     17  O   UNL     1      55.376  36.965  25.385  1.00  0.00    -0.260 OA
BRANCH  16  18
ATOM     18  O   UNL     1      53.027  36.037  25.001  1.00  0.00    -0.324 OA
ATOM     19  H   UNL     1      53.296  35.130  24.707  1.00  0.00     0.221 HD
ENDBRANCH  16  18
BRANCH  16  20
ATOM     20  O   UNL     1      53.496  38.432  24.480  1.00  0.00    -0.324 OA
ATOM     21  H   UNL     1      53.982  38.979  23.814  1.00  0.00     0.221 HD
ENDBRANCH  16  20
ENDBRANCH  11  16
ENDBRANCH   8  11
ENDBRANCH   1   7
BRANCH   4  22
ATOM     22  C   UNL     1      49.453  33.597  17.705  1.00  0.00     0.019 A 
ATOM     23  C   UNL     1      48.192  34.148  17.574  1.00  0.00     0.016 A 
ATOM     24  C   UNL     1      49.827  32.594  16.820  1.00  0.00     0.016 A 
ATOM     25  C   UNL     1      47.367  33.778  16.511  1.00  0.00     0.047 A 
ATOM     26  C   UNL     1      48.995  32.211  15.777  1.00  0.00     0.047 A 
ATOM     27  C   UNL     1      47.764  32.818  15.611  1.00  0.00     0.119 A 
BRANCH  27  28
ATOM     28  O   UNL     1      46.904  32.421  14.564  1.00  0.00    -0.491 OA
BRANCH  28  29
ATOM     29  C   UNL     1      45.727  31.711  14.825  1.00  0.00     0.167 C 
ATOM     30  C   UNL     1      44.570  32.361  14.068  1.00  0.00     0.052 C 
ATOM     31  C   UNL     1      45.946  30.255  14.447  1.00  0.00     0.052 C 
ENDBRANCH  28  29
ENDBRANCH  27  28
ENDBRANCH   4  22
TORSDOF 10
ENDMDL
MODEL 4
REMARK VINA RESULT:    -7.538      2.386      3.358
REMARK INTER + INTRA:         -12.504
REMARK INTER:                 -11.379
REMARK INTRA:                  -1.125
REMARK UNBOUND:                -1.000
REMARK SMILES CC(C)C[C@H](C(=O)Nc1cnc(-c2ccc(OC(C)C)cc2)nc1)P(=O)(O)O
REMARK SMILES IDX 9 1 10 2 24 3 12 4 11 5 23 6 8 7 6 8 7 9 5 11 4 12 2 13 1 14
REMARK SMILES IDX 3 15 25 16 26 17 28 18 27 20 13 22 14 23 22 24 15 25 21 26
REMARK SMILES IDX 16 27 17 28 18 29 19 30 20 31
REMARK H PARENT 8 10 28 19 27 21
ROOT
ATOM      1  C   UNL     1      52.704  35.059  20.871  1.00  0.00     0.078 A 
ATOM      2  C   UNL     1      51.409  34.736  21.237  1.00  0.00     0.141 A 
ATOM      3  C   UNL     1      53.153  34.731  19.625  1.00  0.00     0.141 A 
ATOM      4  C   UNL     1      51.144  33.736  19.141  1.00  0.00     0.159 A 
ATOM      5  N   UNL     1      50.663  34.057  20.348  1.00  0.00    -0.234 NA
ATOM      6  N   UNL     1      52.357  34.027  18.807  1.00  0.00    -0.234 NA
ENDROOT
BRANCH   1   7
ATOM      7  N   UNL     1      53.620  35.818  21.698  1.00  0.00    -0.323 N 
ATOM      8  C   UNL     1      53.562  37.210  21.864  1.00  0.00     0.239 C 
ATOM      9  O   UNL     1      52.707  37.917  21.367  1.00  0.00    -0.274 OA
ATOM     10  H   UNL     1      54.361  35.302  22.195  1.00  0.00     0.170 HD
BRANCH   8  11
ATOM     11  C   UNL     1      54.730  37.663  22.673  1.00  0.00     0.194 C 
BRANCH  11  12
ATOM     12  C   UNL     1      54.585  36.975  24.042  1.00  0.00     0.029 C 
BRANCH  12  13
ATOM     13  C   UNL     1      54.031  37.782  25.225  1.00  0.00    -0.016 C 
ATOM     14  C   UNL     1      52.515  37.545  25.321  1.00  0.00     0.007 C 
ATOM     15  C   UNL     1      54.800  37.448  26.499  1.00  0.00     0.007 C 
ENDBRANCH  12  13
ENDBRANCH  11  12
BRANCH  11  16
ATOM     16  P   UNL     1      56.287  37.309  21.827  1.00  0.00     0.337 P 
ATOM     17  O   UNL     1      55.903  36.669  20.478  1.00  0.00    -0.260 OA
BRANCH  16  18
ATOM     18  O   UNL     1      57.092  36.311  22.711  1.00  0.00    -0.324 OA
ATOM     19  H   UNL     1      57.267  35.483  22.197  1.00  0.00     0.221 HD
ENDBRANCH  16  18
BRANCH  16  20
ATOM     20  O   UNL     1      57.020  38.599  21.716  1.00  0.00    -0.324 OA
ATOM     21  H   UNL     1      57.940  38.429  21.394  1.00  0.00     0.221 HD
ENDBRANCH  16  20
ENDBRANCH  11  16
ENDBRANCH   8  11
ENDBRANCH   1   7
BRANCH   4  22
ATOM     22  C   UNL     1      50.320  33.016  18.058  1.00  0.00     0.019 A 
ATOM     23  C   UNL     1      49.190  33.545  17.462  1.00  0.00     0.016 A 
ATOM     24  C   UNL     1      50.671  31.707  17.753  1.00  0.00     0.016 A 
ATOM     25  C   UNL     1      48.490  32.815  16.501  1.00  0.00     0.047 A 
ATOM     26  C   UNL     1      49.960  30.973  16.813  1.00  0.00     0.047 A 
ATOM     27  C   UNL     1      48.873  31.536  16.170  1.00  0.00     0.119 A 
BRANCH  27  28
ATOM     28  O   UNL     1      48.132  30.791  15.228  1.00  0.00    -0.491 OA
BRANCH  28  29
ATOM     29  C   UNL     1      47.950  29.412  15.377  1.00  0.00     0.167 C 
ATOM     30  C   UNL     1      46.750  29.160  16.287  1.00  0.00     0.052 C 
ATOM     31  C   UNL     1      47.795  28.792  13.998  1.00  0.00     0.052 C 
ENDBRANCH  28  29
ENDBRANCH  27  28
ENDBRANCH   4  22
TORSDOF 10
ENDMDL
MODEL 5
REMARK VINA RESULT:    -7.292      3.042     10.338
REMARK INTER + INTRA:         -12.129
REMARK INTER:                 -11.011
REMARK INTRA:                  -1.118
REMARK UNBOUND:                -1.000
REMARK SMILES CC(C)C[C@H](C(=O)Nc1cnc(-c2ccc(OC(C)C)cc2)nc1)P(=O)(O)O
REMARK SMILES IDX 9 1 10 2 24 3 12 4 11 5 23 6 8 7 6 8 7 9 5 11 4 12 2 13 1 14
REMARK SMILES IDX 3 15 25 16 26 17 28 18 27 20 13 22 14 23 22 24 15 25 21 26
REMARK SMILES IDX 16 27 17 28 18 29 19 30 20 31
REMARK H PARENT 8 10 28 19 27 21
ROOT
ATOM      1  C   UNL     1      49.842  33.217  19.057  1.00  0.00     0.078 A 
ATOM      2  C   UNL     1      50.685  32.496  19.883  1.00  0.00     0.141 A 
ATOM      3  C   UNL     1      50.079  34.545  18.847  1.00  0.00     0.141 A 
ATOM      4  C   UNL     1      51.872  34.472  20.274  1.00  0.00     0.159 A 
ATOM      5  N   UNL     1      51.682  33.164  20.489  1.00  0.00    -0.234 NA
ATOM      6  N   UNL     1      51.076  35.145  19.512  1.00  0.00    -0.234 NA
ENDROOT
BRANCH   1   7
ATOM      7  N   UNL     1      48.747  32.639  18.304  1.00  0.00    -0.323 N 
ATOM      8  C   UNL     1      48.827  32.277  16.950  1.00  0.00     0.239 C 
ATOM      9  O   UNL     1      49.839  32.369  16.283  1.00  0.00    -0.274 OA
ATOM     10  H   UNL     1      47.854  32.485  18.793  1.00  0.00     0.170 HD
BRANCH   8  11
ATOM     11  C   UNL     1      47.484  31.839  16.473  1.00  0.00     0.194 C 
BRANCH  11  12
ATOM     12  C   UNL     1      47.254  32.571  15.139  1.00  0.00     0.029 C 
BRANCH  12  13
ATOM     13  C   UNL     1      46.152  33.638  15.056  1.00  0.00    -0.016 C 
ATOM     14  C   UNL     1      44.811  32.944  14.766  1.00  0.00     0.007 C 
ATOM     15  C   UNL     1      46.154  34.498  16.315  1.00  0.00     0.007 C 
ENDBRANCH  12  13
ENDBRANCH  11  12
BRANCH  11  16
ATOM     16  P   UNL     1      47.388  30.039  16.355  1.00  0.00     0.337 P 
ATOM     17  O   UNL     1      47.304  29.714  14.851  1.00  0.00    -0.260 OA
BRANCH  16  18
ATOM     18  O   UNL     1      46.099  29.581  17.099  1.00  0.00    -0.324 OA
ATOM     19  H   UNL     1      45.340  29.564  16.464  1.00  0.00     0.221 HD
ENDBRANCH  16  18
BRANCH  16  20
ATOM     20  O   UNL     1      48.593  29.497  17.041  1.00  0.00    -0.324 OA
ATOM     21  H   UNL     1      49.384  30.038  16.794  1.00  0.00     0.221 HD
ENDBRANCH  16  20
ENDBRANCH  11  16
ENDBRANCH   8  11
ENDBRANCH   1   7
BRANCH   4  22
ATOM     22  C   UNL     1      53.030  35.278  20.888  1.00  0.00     0.019 A 
ATOM     23  C   UNL     1      52.880  36.199  21.908  1.00  0.00     0.016 A 
ATOM     24  C   UNL     1      54.280  35.157  20.292  1.00  0.00     0.016 A 
ATOM     25  C   UNL     1      53.984  36.902  22.393  1.00  0.00     0.047 A 
ATOM     26  C   UNL     1      55.371  35.875  20.760  1.00  0.00     0.047 A 
ATOM     27  C   UNL     1      55.227  36.741  21.829  1.00  0.00     0.119 A 
BRANCH  27  28
ATOM     28  O   UNL     1      56.327  37.489  22.299  1.00  0.00    -0.491 OA
BRANCH  28  29
ATOM     29  C   UNL     1      57.598  37.340  21.734  1.00  0.00     0.167 C 
ATOM     30  C   UNL     1      57.981  38.630  21.011  1.00  0.00     0.052 C 
ATOM     31  C   UNL     1      58.576  36.960  22.835  1.00  0.00     0.052 C 
ENDBRANCH  28  29
ENDBRANCH  27  28
ENDBRANCH   4  22
TORSDOF 10
ENDMDL
MODEL 6
REMARK VINA RESULT:    -7.073      1.484      1.935
REMARK INTER + INTRA:         -11.795
REMARK INTER:                 -10.673
REMARK INTRA:                  -1.122
REMARK UNBOUND:                -1.000
REMARK SMILES CC(C)C[C@H](C(=O)Nc1cnc(-c2ccc(OC(C)C)cc2)nc1)P(=O)(O)O
REMARK SMILES IDX 9 1 10 2 24 3 12 4 11 5 23 6 8 7 6 8 7 9 5 11 4 12 2 13 1 14
REMARK SMILES IDX 3 15 25 16 26 17 28 18 27 20 13 22 14 23 22 24 15 25 21 26
REMARK SMILES IDX 16 27 17 28 18 29 19 30 20 31
REMARK H PARENT 8 10 28 19 27 21
ROOT
ATOM      1  C   UNL     1      52.763  34.788  20.689  1.00  0.00     0.078 A 
ATOM      2  C   UNL     1      52.990  33.532  20.154  1.00  0.00     0.141 A 
ATOM      3  C   UNL     1      51.683  35.511  20.274  1.00  0.00     0.141 A 
ATOM      4  C   UNL     1      51.109  33.848  18.803  1.00  0.00     0.159 A 
ATOM      5  N   UNL     1      52.148  33.102  19.199  1.00  0.00    -0.234 NA
ATOM      6  N   UNL     1      50.907  35.025  19.295  1.00  0.00    -0.234 NA
ENDROOT
BRANCH   1   7
ATOM      7  N   UNL     1      53.555  35.378  21.749  1.00  0.00    -0.323 N 
ATOM      8  C   UNL     1      54.736  36.106  21.538  1.00  0.00     0.239 C 
ATOM      9  O   UNL     1      55.191  36.356  20.438  1.00  0.00    -0.274 OA
ATOM     10  H   UNL     1      53.230  35.256  22.719  1.00  0.00     0.170 HD
BRANCH   8  11
ATOM     11  C   UNL     1      55.349  36.451  22.853  1.00  0.00     0.194 C 
BRANCH  11  12
ATOM     12  C   UNL     1      56.201  37.708  22.602  1.00  0.00     0.029 C 
BRANCH  12  13
ATOM     13  C   UNL     1      57.730  37.576  22.571  1.00  0.00    -0.016 C 
ATOM     14  C   UNL     1      58.120  36.192  23.118  1.00  0.00     0.007 C 
ATOM     15  C   UNL     1      58.258  37.868  21.170  1.00  0.00     0.007 C 
ENDBRANCH  12  13
ENDBRANCH  11  12
BRANCH  11  16
ATOM     16  P   UNL     1      54.087  36.655  24.129  1.00  0.00     0.337 P 
ATOM     17  O   UNL     1      52.968  37.501  23.489  1.00  0.00    -0.260 OA
BRANCH  16  18
ATOM     18  O   UNL     1      54.738  37.404  25.328  1.00  0.00    -0.324 OA
ATOM     19  H   UNL     1      55.724  37.391  25.229  1.00  0.00     0.221 HD
ENDBRANCH  16  18
BRANCH  16  20
ATOM     20  O   UNL     1      53.671  35.288  24.546  1.00  0.00    -0.324 OA
ATOM     21  H   UNL     1      52.809  35.339  25.029  1.00  0.00     0.221 HD
ENDBRANCH  16  20
ENDBRANCH  11  16
ENDBRANCH   8  11
ENDBRANCH   1   7
BRANCH   4  22
ATOM     22  C   UNL     1      50.075  33.387  17.761  1.00  0.00     0.019 A 
ATOM     23  C   UNL     1      50.353  32.512  16.726  1.00  0.00     0.016 A 
ATOM     24  C   UNL     1      48.821  33.984  17.797  1.00  0.00     0.016 A 
ATOM     25  C   UNL     1      49.359  32.161  15.811  1.00  0.00     0.047 A 
ATOM     26  C   UNL     1      47.841  33.651  16.872  1.00  0.00     0.047 A 
ATOM     27  C   UNL     1      48.105  32.722  15.882  1.00  0.00     0.119 A 
BRANCH  27  28
ATOM     28  O   UNL     1      47.121  32.392  14.926  1.00  0.00    -0.491 OA
BRANCH  28  29
ATOM     29  C   UNL     1      46.449  31.165  14.973  1.00  0.00     0.167 C 
ATOM     30  C   UNL     1      47.156  30.171  14.054  1.00  0.00     0.052 C 
ATOM     31  C   UNL     1      46.388  30.702  16.420  1.00  0.00     0.052 C 
ENDBRANCH  28  29
ENDBRANCH  27  28
ENDBRANCH   4  22
TORSDOF 10
ENDMDL
MODEL 7
REMARK VINA RESULT:    -7.059      6.886     12.329
REMARK INTER + INTRA:         -11.773
REMARK INTER:                 -10.705
REMARK INTRA:                  -1.068
REMARK UNBOUND:                -1.000
REMARK SMILES CC(C)C[C@H](C(=O)Nc1cnc(-c2ccc(OC(C)C)cc2)nc1)P(=O)(O)O
REMARK SMILES IDX 9 1 10 2 24 3 12 4 11 5 23 6 8 7 6 8 7 9 5 11 4 12 2 13 1 14
REMARK SMILES IDX 3 15 25 16 26 17 28 18 27 20 13 22 14 23 22 24 15 25 21 26
REMARK SMILES IDX 16 27 17 28 18 29 19 30 20 31
REMARK H PARENT 8 10 28 19 27 21
ROOT
ATOM      1  C   UNL     1      57.232  37.249  21.351  1.00  0.00     0.078 A 
ATOM      2  C   UNL     1      57.410  37.847  20.117  1.00  0.00     0.141 A 
ATOM      3  C   UNL     1      58.219  37.335  22.289  1.00  0.00     0.141 A 
ATOM      4  C   UNL     1      59.541  38.499  20.821  1.00  0.00     0.159 A 
ATOM      5  N   UNL     1      58.588  38.450  19.882  1.00  0.00    -0.234 NA
ATOM      6  N   UNL     1      59.378  37.928  21.968  1.00  0.00    -0.234 NA
ENDROOT
BRANCH   1   7
ATOM      7  N   UNL     1      56.011  36.593  21.772  1.00  0.00    -0.323 N 
ATOM      8  C   UNL     1      54.858  37.272  22.197  1.00  0.00     0.239 C 
ATOM      9  O   UNL     1      54.752  38.484  22.211  1.00  0.00    -0.274 OA
ATOM     10  H   UNL     1      55.986  35.563  21.758  1.00  0.00     0.170 HD
BRANCH   8  11
ATOM     11  C   UNL     1      53.847  36.286  22.674  1.00  0.00     0.194 C 
BRANCH  11  12
ATOM     12  C   UNL     1      52.896  37.071  23.595  1.00  0.00     0.029 C 
BRANCH  12  13
ATOM     13  C   UNL     1      53.345  37.392  25.027  1.00  0.00    -0.016 C 
ATOM     14  C   UNL     1      52.192  38.097  25.762  1.00  0.00     0.007 C 
ATOM     15  C   UNL     1      53.851  36.131  25.718  1.00  0.00     0.007 C 
ENDBRANCH  12  13
ENDBRANCH  11  12
BRANCH  11  16
ATOM     16  P   UNL     1      53.028  35.468  21.287  1.00  0.00     0.337 P 
ATOM     17  O   UNL     1      54.152  34.846  20.435  1.00  0.00    -0.260 OA
BRANCH  16  18
ATOM     18  O   UNL     1      52.253  36.555  20.484  1.00  0.00    -0.324 OA
ATOM     19  H   UNL     1      52.321  36.360  19.516  1.00  0.00     0.221 HD
ENDBRANCH  16  18
BRANCH  16  20
ATOM     20  O   UNL     1      52.073  34.486  21.869  1.00  0.00    -0.324 OA
ATOM     21  H   UNL     1      51.808  33.833  21.174  1.00  0.00     0.221 HD
ENDBRANCH  16  20
ENDBRANCH  11  16
ENDBRANCH   8  11
ENDBRANCH   1   7
BRANCH   4  22
ATOM     22  C   UNL     1      60.885  39.227  20.636  1.00  0.00     0.019 A 
ATOM     23  C   UNL     1      61.965  39.092  21.489  1.00  0.00     0.016 A 
ATOM     24  C   UNL     1      60.967  40.167  19.616  1.00  0.00     0.016 A 
ATOM     25  C   UNL     1      63.141  39.806  21.257  1.00  0.00     0.047 A 
ATOM     26  C   UNL     1      62.130  40.894  19.402  1.00  0.00     0.047 A 
ATOM     27  C   UNL     1      63.231  40.700  20.217  1.00  0.00     0.119 A 
BRANCH  27  28
ATOM     28  O   UNL     1      64.411  41.448  20.018  1.00  0.00    -0.491 OA
BRANCH  28  29
ATOM     29  C   UNL     1      64.411  42.843  20.129  1.00  0.00     0.167 C 
ATOM     30  C   UNL     1      63.961  43.234  21.536  1.00  0.00     0.052 C 
ATOM     31  C   UNL     1      65.800  43.355  19.783  1.00  0.00     0.052 C 
ENDBRANCH  28  29
ENDBRANCH  27  28
ENDBRANCH   4  22
TORSDOF 10
ENDMDL
MODEL 8
REMARK VINA RESULT:    -6.936      2.327      2.874
REMARK INTER + INTRA:         -11.585
REMARK INTER:                 -10.228
REMARK INTRA:                  -1.357
REMARK UNBOUND:                -1.000
REMARK SMILES CC(C)C[C@H](C(=O)Nc1cnc(-c2ccc(OC(C)C)cc2)nc1)P(=O)(O)O
REMARK SMILES IDX 9 1 10 2 24 3 12 4 11 5 23 6 8 7 6 8 7 9 5 11 4 12 2 13 1 14
REMARK SMILES IDX 3 15 25 16 26 17 28 18 27 20 13 22 14 23 22 24 15 25 21 26
REMARK SMILES IDX 16 27 17 28 18 29 19 30 20 31
REMARK H PARENT 8 10 28 19 27 21
ROOT
ATOM      1  C   UNL     1      53.920  34.296  19.269  1.00  0.00     0.078 A 
ATOM      2  C   UNL     1      52.945  33.898  20.167  1.00  0.00     0.141 A 
ATOM      3  C   UNL     1      53.619  34.378  17.941  1.00  0.00     0.141 A 
ATOM      4  C   UNL     1      51.491  33.632  18.356  1.00  0.00     0.159 A 
ATOM      5  N   UNL     1      51.744  33.557  19.669  1.00  0.00    -0.234 NA
ATOM      6  N   UNL     1      52.406  33.991  17.520  1.00  0.00    -0.234 NA
ENDROOT
BRANCH   1   7
ATOM      7  N   UNL     1      55.250  34.729  19.648  1.00  0.00    -0.323 N 
ATOM      8  C   UNL     1      55.512  35.825  20.485  1.00  0.00     0.239 C 
ATOM      9  O   UNL     1      54.647  36.495  21.016  1.00  0.00    -0.274 OA
ATOM     10  H   UNL     1      56.053  34.200  19.279  1.00  0.00     0.170 HD
BRANCH   8  11
ATOM     11  C   UNL     1      56.983  36.057  20.553  1.00  0.00     0.194 C 
BRANCH  11  12
ATOM     12  C   UNL     1      57.396  36.551  19.155  1.00  0.00     0.029 C 
BRANCH  12  13
ATOM     13  C   UNL     1      58.678  35.996  18.519  1.00  0.00    -0.016 C 
ATOM     14  C   UNL     1      59.749  37.099  18.517  1.00  0.00     0.007 C 
ATOM     15  C   UNL     1      59.103  34.710  19.221  1.00  0.00     0.007 C 
ENDBRANCH  12  13
ENDBRANCH  11  12
BRANCH  11  16
ATOM     16  P   UNL     1      57.403  37.194  21.894  1.00  0.00     0.337 P 
ATOM     17  O   UNL     1      58.941  37.181  21.998  1.00  0.00    -0.260 OA
BRANCH  16  18
ATOM     18  O   UNL     1      56.749  36.653  23.199  1.00  0.00    -0.324 OA
ATOM     19  H   UNL     1      56.936  35.684  23.285  1.00  0.00     0.221 HD
ENDBRANCH  16  18
BRANCH  16  20
ATOM     20  O   UNL     1      56.816  38.515  21.538  1.00  0.00    -0.324 OA
ATOM     21  H   UNL     1      55.896  38.385  21.195  1.00  0.00     0.221 HD
ENDBRANCH  16  20
ENDBRANCH  11  16
ENDBRANCH   8  11
ENDBRANCH   1   7
BRANCH   4  22
ATOM     22  C   UNL     1      50.119  33.316  17.733  1.00  0.00     0.019 A 
ATOM     23  C   UNL     1      49.936  32.495  16.635  1.00  0.00     0.016 A 
ATOM     24  C   UNL     1      49.017  33.998  18.234  1.00  0.00     0.016 A 
ATOM     25  C   UNL     1      48.657  32.278  16.121  1.00  0.00     0.047 A 
ATOM     26  C   UNL     1      47.749  33.799  17.705  1.00  0.00     0.047 A 
ATOM     27  C   UNL     1      47.564  32.920  16.653  1.00  0.00     0.119 A 
BRANCH  27  28
ATOM     28  O   UNL     1      46.282  32.726  16.098  1.00  0.00    -0.491 OA
BRANCH  28  29
ATOM     29  C   UNL     1      45.573  33.787  15.525  1.00  0.00     0.167 C 
ATOM     30  C   UNL     1      45.322  33.485  14.049  1.00  0.00     0.052 C 
ATOM     31  C   UNL     1      44.293  33.998  16.318  1.00  0.00     0.052 C 
ENDBRANCH  28  29
ENDBRANCH  27  28
ENDBRANCH   4  22
TORSDOF 10
ENDMDL
MODEL 9
REMARK VINA RESULT:    -6.880      4.313     10.364
REMARK INTER + INTRA:         -11.500
REMARK INTER:                 -10.433
REMARK INTRA:                  -1.068
REMARK UNBOUND:                -1.000
REMARK SMILES CC(C)C[C@H](C(=O)Nc1cnc(-c2ccc(OC(C)C)cc2)nc1)P(=O)(O)O
REMARK SMILES IDX 9 1 10 2 24 3 12 4 11 5 23 6 8 7 6 8 7 9 5 11 4 12 2 13 1 14
REMARK SMILES IDX 3 15 25 16 26 17 28 18 27 20 13 22 14 23 22 24 15 25 21 26
REMARK SMILES IDX 16 27 17 28 18 29 19 30 20 31
REMARK H PARENT 8 10 28 19 27 21
ROOT
ATOM      1  C   UNL     1      53.815  33.949  19.387  1.00  0.00     0.078 A 
ATOM      2  C   UNL     1      55.014  33.782  18.717  1.00  0.00     0.141 A 
ATOM      3  C   UNL     1      53.674  34.981  20.268  1.00  0.00     0.141 A 
ATOM      4  C   UNL     1      55.844  35.621  19.898  1.00  0.00     0.159 A 
ATOM      5  N   UNL     1      56.014  34.631  19.013  1.00  0.00    -0.234 NA
ATOM      6  N   UNL     1      54.728  35.766  20.531  1.00  0.00    -0.234 NA
ENDROOT
BRANCH   1   7
ATOM      7  N   UNL     1      52.632  33.144  19.156  1.00  0.00    -0.323 N 
ATOM      8  C   UNL     1      52.064  32.925  17.891  1.00  0.00     0.239 C 
ATOM      9  O   UNL     1      52.534  33.351  16.854  1.00  0.00    -0.274 OA
ATOM     10  H   UNL     1      52.180  32.705  19.971  1.00  0.00     0.170 HD
BRANCH   8  11
ATOM     11  C   UNL     1      50.792  32.162  18.043  1.00  0.00     0.194 C 
BRANCH  11  12
ATOM     12  C   UNL     1      51.138  30.935  18.905  1.00  0.00     0.029 C 
BRANCH  12  13
ATOM     13  C   UNL     1      51.225  29.557  18.236  1.00  0.00    -0.016 C 
ATOM     14  C   UNL     1      52.695  29.264  17.890  1.00  0.00     0.007 C 
ATOM     15  C   UNL     1      50.564  28.500  19.114  1.00  0.00     0.007 C 
ENDBRANCH  12  13
ENDBRANCH  11  12
BRANCH  11  16
ATOM     16  P   UNL     1      49.484  33.204  18.729  1.00  0.00     0.337 P 
ATOM     17  O   UNL     1      48.291  33.083  17.760  1.00  0.00    -0.260 OA
BRANCH  16  18
ATOM     18  O   UNL     1      50.017  34.666  18.780  1.00  0.00    -0.324 OA
ATOM     19  H   UNL     1      50.889  34.683  19.249  1.00  0.00     0.221 HD
ENDBRANCH  16  18
BRANCH  16  20
ATOM     20  O   UNL     1      49.218  32.710  20.107  1.00  0.00    -0.324 OA
ATOM     21  H   UNL     1      48.240  32.646  20.251  1.00  0.00     0.221 HD
ENDBRANCH  16  20
ENDBRANCH  11  16
ENDBRANCH   8  11
ENDBRANCH   1   7
BRANCH   4  22
ATOM     22  C   UNL     1      56.928  36.661  20.233  1.00  0.00     0.019 A 
ATOM     23  C   UNL     1      57.093  37.237  21.479  1.00  0.00     0.016 A 
ATOM     24  C   UNL     1      57.707  37.133  19.183  1.00  0.00     0.016 A 
ATOM     25  C   UNL     1      58.091  38.189  21.691  1.00  0.00     0.047 A 
ATOM     26  C   UNL     1      58.684  38.096  19.391  1.00  0.00     0.047 A 
ATOM     27  C   UNL     1      58.889  38.616  20.656  1.00  0.00     0.119 A 
BRANCH  27  28
ATOM     28  O   UNL     1      59.868  39.610  20.873  1.00  0.00    -0.491 OA
BRANCH  28  29
ATOM     29  C   UNL     1      59.972  40.720  20.028  1.00  0.00     0.167 C 
ATOM     30  C   UNL     1      59.421  41.951  20.745  1.00  0.00     0.052 C 
ATOM     31  C   UNL     1      61.424  40.874  19.607  1.00  0.00     0.052 C 
ENDBRANCH  28  29
ENDBRANCH  27  28
ENDBRANCH   4  22
TORSDOF 10
ENDMDL
MODEL 10
REMARK VINA RESULT:    -6.868      6.978     11.947
REMARK INTER + INTRA:         -11.482
REMARK INTER:                 -10.641
REMARK INTRA:                  -0.840
REMARK UNBOUND:                -1.000
REMARK SMILES CC(C)C[C@H](C(=O)Nc1cnc(-c2ccc(OC(C)C)cc2)nc1)P(=O)(O)O
REMARK SMILES IDX 9 1 10 2 24 3 12 4 11 5 23 6 8 7 6 8 7 9 5 11 4 12 2 13 1 14
REMARK SMILES IDX 3 15 25 16 26 17 28 18 27 20 13 22 14 23 22 24 15 25 21 26
REMARK SMILES IDX 16 27 17 28 18 29 19 30 20 31
REMARK H PARENT 8 10 28 19 27 21
ROOT
ATOM      1  C   UNL     1      57.287  37.478  21.570  1.00  0.00     0.078 A 
ATOM      2  C   UNL     1      58.502  37.400  22.227  1.00  0.00     0.141 A 
ATOM      3  C   UNL     1      57.183  38.223  20.431  1.00  0.00     0.141 A 
ATOM      4  C   UNL     1      59.380  38.852  20.619  1.00  0.00     0.159 A 
ATOM      5  N   UNL     1      59.525  38.117  21.729  1.00  0.00    -0.234 NA
ATOM      6  N   UNL     1      58.241  38.933  20.015  1.00  0.00    -0.234 NA
ENDROOT
BRANCH   1   7
ATOM      7  N   UNL     1      56.102  36.739  21.957  1.00  0.00    -0.323 N 
ATOM      8  C   UNL     1      54.878  37.336  22.298  1.00  0.00     0.239 C 
ATOM      9  O   UNL     1      54.674  38.535  22.258  1.00  0.00    -0.274 OA
ATOM     10  H   UNL     1      56.161  35.711  21.984  1.00  0.00     0.170 HD
BRANCH   8  11
ATOM     11  C   UNL     1      53.926  36.288  22.765  1.00  0.00     0.194 C 
BRANCH  11  12
ATOM     12  C   UNL     1      52.965  36.996  23.736  1.00  0.00     0.029 C 
BRANCH  12  13
ATOM     13  C   UNL     1      53.514  37.542  25.061  1.00  0.00    -0.016 C 
ATOM     14  C   UNL     1      52.494  38.529  25.653  1.00  0.00     0.007 C 
ATOM     15  C   UNL     1      53.888  36.394  25.992  1.00  0.00     0.007 C 
ENDBRANCH  12  13
ENDBRANCH  11  12
BRANCH  11  16
ATOM     16  P   UNL     1      53.109  35.481  21.370  1.00  0.00     0.337 P 
ATOM     17  O   UNL     1      52.394  36.601  20.589  1.00  0.00    -0.260 OA
BRANCH  16  18
ATOM     18  O   UNL     1      52.084  34.459  21.946  1.00  0.00    -0.324 OA
ATOM     19  H   UNL     1      52.568  33.675  22.308  1.00  0.00     0.221 HD
ENDBRANCH  16  18
BRANCH  16  20
ATOM     20  O   UNL     1      54.167  34.767  20.606  1.00  0.00    -0.324 OA
ATOM     21  H   UNL     1      53.745  34.183  19.926  1.00  0.00     0.221 HD
ENDBRANCH  16  20
ENDBRANCH  11  16
ENDBRANCH   8  11
ENDBRANCH   1   7
BRANCH   4  22
ATOM     22  C   UNL     1      60.527  39.644  19.965  1.00  0.00     0.019 A 
ATOM     23  C   UNL     1      60.888  39.532  18.635  1.00  0.00     0.016 A 
ATOM     24  C   UNL     1      61.319  40.426  20.797  1.00  0.00     0.016 A 
ATOM     25  C   UNL     1      61.955  40.274  18.127  1.00  0.00     0.047 A 
ATOM     26  C   UNL     1      62.394  41.146  20.295  1.00  0.00     0.047 A 
ATOM     27  C   UNL     1      62.705  41.083  18.948  1.00  0.00     0.119 A 
BRANCH  27  28
ATOM     28  O   UNL     1      63.809  41.796  18.433  1.00  0.00    -0.491 OA
BRANCH  28  29
ATOM     29  C   UNL     1      64.662  41.222  17.485  1.00  0.00     0.167 C 
ATOM     30  C   UNL     1      65.090  42.291  16.482  1.00  0.00     0.052 C 
ATOM     31  C   UNL     1      65.834  40.582  18.213  1.00  0.00     0.052 C 
ENDBRANCH  28  29
ENDBRANCH  27  28
ENDBRANCH   4  22
TORSDOF 10
ENDMDL
MODEL 11
REMARK VINA RESULT:    -6.783      3.493     10.412
REMARK INTER + INTRA:         -11.352
REMARK INTER:                 -10.184
REMARK INTRA:                  -1.168
REMARK UNBOUND:                -1.000
REMARK SMILES CC(C)C[C@H](C(=O)Nc1cnc(-c2ccc(OC(C)C)cc2)nc1)P(=O)(O)O
REMARK SMILES IDX 9 1 10 2 24 3 12 4 11 5 23 6 8 7 6 8 7 9 5 11 4 12 2 13 1 14
REMARK SMILES IDX 3 15 25 16 26 17 28 18 27 20 13 22 14 23 22 24 15 25 21 26
REMARK SMILES IDX 16 27 17 28 18 29 19 30 20 31
REMARK H PARENT 8 10 28 19 27 21
ROOT
ATOM      1  C   UNL     1      49.458  32.477  17.915  1.00  0.00     0.078 A 
ATOM      2  C   UNL     1      50.572  31.663  17.808  1.00  0.00     0.141 A 
ATOM      3  C   UNL     1      49.600  33.755  18.371  1.00  0.00     0.141 A 
ATOM      4  C   UNL     1      51.848  33.419  18.674  1.00  0.00     0.159 A 
ATOM      5  N   UNL     1      51.751  32.165  18.215  1.00  0.00    -0.234 NA
ATOM      6  N   UNL     1      50.805  34.172  18.785  1.00  0.00    -0.234 NA
ENDROOT
BRANCH   1   7
ATOM      7  N   UNL     1      48.127  32.098  17.487  1.00  0.00    -0.323 N 
ATOM      8  C   UNL     1      47.651  32.243  16.174  1.00  0.00     0.239 C 
ATOM      9  O   UNL     1      48.325  32.659  15.251  1.00  0.00    -0.274 OA
ATOM     10  H   UNL     1      47.489  31.697  18.190  1.00  0.00     0.170 HD
BRANCH   8  11
ATOM     11  C   UNL     1      46.207  31.875  16.125  1.00  0.00     0.194 C 
BRANCH  11  12
ATOM     12  C   UNL     1      45.605  32.690  14.967  1.00  0.00     0.029 C 
BRANCH  12  13
ATOM     13  C   UNL     1      44.438  33.645  15.257  1.00  0.00    -0.016 C 
ATOM     14  C   UNL     1      44.714  34.377  16.581  1.00  0.00     0.007 C 
ATOM     15  C   UNL     1      44.202  34.568  14.067  1.00  0.00     0.007 C 
ENDBRANCH  12  13
ENDBRANCH  11  12
BRANCH  11  16
ATOM     16  P   UNL     1      45.994  30.088  15.963  1.00  0.00     0.337 P 
ATOM     17  O   UNL     1      47.302  29.455  16.480  1.00  0.00    -0.260 OA
BRANCH  16  18
ATOM     18  O   UNL     1      45.777  29.770  14.454  1.00  0.00    -0.324 OA
ATOM     19  H   UNL     1      45.324  28.894  14.363  1.00  0.00     0.221 HD
ENDBRANCH  16  18
BRANCH  16  20
ATOM     20  O   UNL     1      44.779  29.726  16.741  1.00  0.00    -0.324 OA
ATOM     21  H   UNL     1      45.045  29.252  17.568  1.00  0.00     0.221 HD
ENDBRANCH  16  20
ENDBRANCH  11  16
ENDBRANCH   8  11
ENDBRANCH   1   7
BRANCH   4  22
ATOM     22  C   UNL     1      53.176  34.073  19.095  1.00  0.00     0.019 A 
ATOM     23  C   UNL     1      54.373  33.902  18.424  1.00  0.00     0.016 A 
ATOM     24  C   UNL     1      53.190  34.777  20.293  1.00  0.00     0.016 A 
ATOM     25  C   UNL     1      55.537  34.517  18.887  1.00  0.00     0.047 A 
ATOM     26  C   UNL     1      54.354  35.369  20.764  1.00  0.00     0.047 A 
ATOM     27  C   UNL     1      55.532  35.252  20.049  1.00  0.00     0.119 A 
BRANCH  27  28
ATOM     28  O   UNL     1      56.724  35.834  20.530  1.00  0.00    -0.491 OA
BRANCH  28  29
ATOM     29  C   UNL     1      56.711  37.066  21.194  1.00  0.00     0.167 C 
ATOM     30  C   UNL     1      57.345  36.899  22.574  1.00  0.00     0.052 C 
ATOM     31  C   UNL     1      57.427  38.090  20.328  1.00  0.00     0.052 C 
ENDBRANCH  28  29
ENDBRANCH  27  28
ENDBRANCH   4  22
TORSDOF 10
ENDMDL
MODEL 12
REMARK VINA RESULT:    -6.622      4.860     11.960
REMARK INTER + INTRA:         -11.106
REMARK INTER:                 -10.043
REMARK INTRA:                  -1.063
REMARK UNBOUND:                -1.000
REMARK SMILES CC(C)C[C@H](C(=O)Nc1cnc(-c2ccc(OC(C)C)cc2)nc1)P(=O)(O)O
REMARK SMILES IDX 9 1 10 2 24 3 12 4 11 5 23 6 8 7 6 8 7 9 5 11 4 12 2 13 1 14
REMARK SMILES IDX 3 15 25 16 26 17 28 18 27 20 13 22 14 23 22 24 15 25 21 26
REMARK SMILES IDX 16 27 17 28 18 29 19 30 20 31
REMARK H PARENT 8 10 28 19 27 21
ROOT
ATOM      1  C   UNL     1      56.455  36.788  21.303  1.00  0.00     0.078 A 
ATOM      2  C   UNL     1      57.371  36.420  22.272  1.00  0.00     0.141 A 
ATOM      3  C   UNL     1      56.792  37.740  20.385  1.00  0.00     0.141 A 
ATOM      4  C   UNL     1      58.838  38.009  21.386  1.00  0.00     0.159 A 
ATOM      5  N   UNL     1      58.549  37.067  22.292  1.00  0.00    -0.234 NA
ATOM      6  N   UNL     1      57.976  38.360  20.490  1.00  0.00    -0.234 NA
ENDROOT
BRANCH   1   7
ATOM      7  N   UNL     1      55.160  36.164  21.125  1.00  0.00    -0.323 N 
ATOM      8  C   UNL     1      54.895  35.152  20.189  1.00  0.00     0.239 C 
ATOM      9  O   UNL     1      55.739  34.662  19.463  1.00  0.00    -0.274 OA
ATOM     10  H   UNL     1      54.384  36.483  21.723  1.00  0.00     0.170 HD
BRANCH   8  11
ATOM     11  C   UNL     1      53.438  34.839  20.194  1.00  0.00     0.194 C 
BRANCH  11  12
ATOM     12  C   UNL     1      53.337  33.307  20.307  1.00  0.00     0.029 C 
BRANCH  12  13
ATOM     13  C   UNL     1      52.778  32.509  19.121  1.00  0.00    -0.016 C 
ATOM     14  C   UNL     1      52.069  33.479  18.160  1.00  0.00     0.007 C 
ATOM     15  C   UNL     1      53.881  31.680  18.473  1.00  0.00     0.007 C 
ENDBRANCH  12  13
ENDBRANCH  11  12
BRANCH  11  16
ATOM     16  P   UNL     1      52.581  35.736  21.507  1.00  0.00     0.337 P 
ATOM     17  O   UNL     1      52.879  37.230  21.267  1.00  0.00    -0.260 OA
BRANCH  16  18
ATOM     18  O   UNL     1      53.169  35.262  22.869  1.00  0.00    -0.324 OA
ATOM     19  H   UNL     1      53.499  34.332  22.780  1.00  0.00     0.221 HD
ENDBRANCH  16  18
BRANCH  16  20
ATOM     20  O   UNL     1      51.143  35.366  21.415  1.00  0.00    -0.324 OA
ATOM     21  H   UNL     1      50.778  35.676  20.549  1.00  0.00     0.221 HD
ENDBRANCH  16  20
ENDBRANCH  11  16
ENDBRANCH   8  11
ENDBRANCH   1   7
BRANCH   4  22
ATOM     22  C   UNL     1      60.190  38.741  21.316  1.00  0.00     0.019 A 
ATOM     23  C   UNL     1      61.327  38.337  21.992  1.00  0.00     0.016 A 
ATOM     24  C   UNL     1      60.229  39.947  20.628  1.00  0.00     0.016 A 
ATOM     25  C   UNL     1      62.509  39.071  21.889  1.00  0.00     0.047 A 
ATOM     26  C   UNL     1      61.400  40.689  20.546  1.00  0.00     0.047 A 
ATOM     27  C   UNL     1      62.552  40.240  21.166  1.00  0.00     0.119 A 
BRANCH  27  28
ATOM     28  O   UNL     1      63.742  40.998  21.104  1.00  0.00    -0.491 OA
BRANCH  28  29
ATOM     29  C   UNL     1      63.733  42.322  20.652  1.00  0.00     0.167 C 
ATOM     30  C   UNL     1      63.790  43.262  21.854  1.00  0.00     0.052 C 
ATOM     31  C   UNL     1      64.894  42.512  19.689  1.00  0.00     0.052 C 
ENDBRANCH  28  29
ENDBRANCH  27  28
ENDBRANCH   4  22
TORSDOF 10
ENDMDL
MODEL 13
REMARK VINA RESULT:    -6.596      2.644      3.485
REMARK INTER + INTRA:         -11.067
REMARK INTER:                 -10.141
REMARK INTRA:                  -0.926
REMARK UNBOUND:                -1.000
REMARK SMILES CC(C)C[C@H](C(=O)Nc1cnc(-c2ccc(OC(C)C)cc2)nc1)P(=O)(O)O
REMARK SMILES IDX 9 1 10 2 24 3 12 4 11 5 23 6 8 7 6 8 7 9 5 11 4 12 2 13 1 14
REMARK SMILES IDX 3 15 25 16 26 17 28 18 27 20 13 22 14 23 22 24 15 25 21 26
REMARK SMILES IDX 16 27 17 28 18 29 19 30 20 31
REMARK H PARENT 8 10 28 19 27 21
ROOT
ATOM      1  C   UNL     1      54.746  35.082  20.054  1.00  0.00     0.078 A 
ATOM      2  C   UNL     1      53.615  35.161  20.847  1.00  0.00     0.141 A 
ATOM      3  C   UNL     1      54.649  34.573  18.792  1.00  0.00     0.141 A 
ATOM      4  C   UNL     1      52.415  34.166  19.105  1.00  0.00     0.159 A 
ATOM      5  N   UNL     1      52.467  34.676  20.343  1.00  0.00    -0.234 NA
ATOM      6  N   UNL     1      53.475  34.082  18.373  1.00  0.00    -0.234 NA
ENDROOT
BRANCH   1   7
ATOM      7  N   UNL     1      56.047  35.592  20.436  1.00  0.00    -0.323 N 
ATOM      8  C   UNL     1      56.252  36.818  21.089  1.00  0.00     0.239 C 
ATOM      9  O   UNL     1      55.352  37.556  21.442  1.00  0.00    -0.274 OA
ATOM     10  H   UNL     1      56.875  35.019  20.215  1.00  0.00     0.170 HD
BRANCH   8  11
ATOM     11  C   UNL     1      57.715  37.080  21.209  1.00  0.00     0.194 C 
BRANCH  11  12
ATOM     12  C   UNL     1      57.871  38.610  21.183  1.00  0.00     0.029 C 
BRANCH  12  13
ATOM     13  C   UNL     1      58.470  39.276  19.936  1.00  0.00    -0.016 C 
ATOM     14  C   UNL     1      58.836  40.730  20.276  1.00  0.00     0.007 C 
ATOM     15  C   UNL     1      59.630  38.446  19.399  1.00  0.00     0.007 C 
ENDBRANCH  12  13
ENDBRANCH  11  12
BRANCH  11  16
ATOM     16  P   UNL     1      58.400  36.290  22.683  1.00  0.00     0.337 P 
ATOM     17  O   UNL     1      59.716  37.032  22.990  1.00  0.00    -0.260 OA
BRANCH  16  18
ATOM     18  O   UNL     1      58.668  34.795  22.340  1.00  0.00    -0.324 OA
ATOM     19  H   UNL     1      58.994  34.324  23.148  1.00  0.00     0.221 HD
ENDBRANCH  16  18
BRANCH  16  20
ATOM     20  O   UNL     1      57.365  36.392  23.747  1.00  0.00    -0.324 OA
ATOM     21  H   UNL     1      57.420  35.599  24.337  1.00  0.00     0.221 HD
ENDBRANCH  16  20
ENDBRANCH  11  16
ENDBRANCH   8  11
ENDBRANCH   1   7
BRANCH   4  22
ATOM     22  C   UNL     1      51.121  33.653  18.448  1.00  0.00     0.019 A 
ATOM     23  C   UNL     1      49.859  33.812  18.990  1.00  0.00     0.016 A 
ATOM     24  C   UNL     1      51.250  32.878  17.302  1.00  0.00     0.016 A 
ATOM     25  C   UNL     1      48.739  33.297  18.336  1.00  0.00     0.047 A 
ATOM     26  C   UNL     1      50.137  32.347  16.666  1.00  0.00     0.047 A 
ATOM     27  C   UNL     1      48.871  32.571  17.176  1.00  0.00     0.119 A 
BRANCH  27  28
ATOM     28  O   UNL     1      47.735  32.019  16.546  1.00  0.00    -0.491 OA
BRANCH  28  29
ATOM     29  C   UNL     1      47.433  32.313  15.212  1.00  0.00     0.167 C 
ATOM     30  C   UNL     1      46.899  31.055  14.529  1.00  0.00     0.052 C 
ATOM     31  C   UNL     1      46.450  33.472  15.183  1.00  0.00     0.052 C 
ENDBRANCH  28  29
ENDBRANCH  27  28
ENDBRANCH   4  22
TORSDOF 10
ENDMDL
MODEL 14
REMARK VINA RESULT:    -6.431      2.996      3.837
REMARK INTER + INTRA:         -10.815
REMARK INTER:                 -10.109
REMARK INTRA:                  -0.706
REMARK UNBOUND:                -1.000
REMARK SMILES CC(C)C[C@H](C(=O)Nc1cnc(-c2ccc(OC(C)C)cc2)nc1)P(=O)(O)O
REMARK SMILES IDX 9 1 10 2 24 3 12 4 11 5 23 6 8 7 6 8 7 9 5 11 4 12 2 13 1 14
REMARK SMILES IDX 3 15 25 16 26 17 28 18 27 20 13 22 14 23 22 24 15 25 21 26
REMARK SMILES IDX 16 27 17 28 18 29 19 30 20 31
REMARK H PARENT 8 10 28 19 27 21
ROOT
ATOM      1  C   UNL     1      54.706  34.988  19.905  1.00  0.00     0.078 A 
ATOM      2  C   UNL     1      53.559  35.078  20.673  1.00  0.00     0.141 A 
ATOM      3  C   UNL     1      54.630  34.484  18.639  1.00  0.00     0.141 A 
ATOM      4  C   UNL     1      52.385  34.102  18.903  1.00  0.00     0.159 A 
ATOM      5  N   UNL     1      52.417  34.608  20.143  1.00  0.00    -0.234 NA
ATOM      6  N   UNL     1      53.459  34.007  18.193  1.00  0.00    -0.234 NA
ENDROOT
BRANCH   1   7
ATOM      7  N   UNL     1      56.004  35.482  20.316  1.00  0.00    -0.323 N 
ATOM      8  C   UNL     1      56.202  36.666  21.044  1.00  0.00     0.239 C 
ATOM      9  O   UNL     1      55.299  37.374  21.444  1.00  0.00    -0.274 OA
ATOM     10  H   UNL     1      56.835  34.930  20.058  1.00  0.00     0.170 HD
BRANCH   8  11
ATOM     11  C   UNL     1      57.664  36.929  21.178  1.00  0.00     0.194 C 
BRANCH  11  12
ATOM     12  C   UNL     1      58.353  35.562  21.015  1.00  0.00     0.029 C 
BRANCH  12  13
ATOM     13  C   UNL     1      59.272  35.055  22.135  1.00  0.00    -0.016 C 
ATOM     14  C   UNL     1      60.063  33.842  21.618  1.00  0.00     0.007 C 
ATOM     15  C   UNL     1      60.141  36.192  22.661  1.00  0.00     0.007 C 
ENDBRANCH  12  13
ENDBRANCH  11  12
BRANCH  11  16
ATOM     16  P   UNL     1      58.213  38.180  19.995  1.00  0.00     0.337 P 
ATOM     17  O   UNL     1      57.539  39.498  20.427  1.00  0.00    -0.260 OA
BRANCH  16  18
ATOM     18  O   UNL     1      57.731  37.742  18.581  1.00  0.00    -0.324 OA
ATOM     19  H   UNL     1      58.100  38.360  17.901  1.00  0.00     0.221 HD
ENDBRANCH  16  18
BRANCH  16  20
ATOM     20  O   UNL     1      59.700  38.197  20.046  1.00  0.00    -0.324 OA
ATOM     21  H   UNL     1      60.011  37.633  20.797  1.00  0.00     0.221 HD
ENDBRANCH  16  20
ENDBRANCH  11  16
ENDBRANCH   8  11
ENDBRANCH   1   7
BRANCH   4  22
ATOM     22  C   UNL     1      51.099  33.606  18.217  1.00  0.00     0.019 A 
ATOM     23  C   UNL     1      51.080  32.798  17.096  1.00  0.00     0.016 A 
ATOM     24  C   UNL     1      49.891  34.104  18.688  1.00  0.00     0.016 A 
ATOM     25  C   UNL     1      49.867  32.410  16.525  1.00  0.00     0.047 A 
ATOM     26  C   UNL     1      48.686  33.736  18.105  1.00  0.00     0.047 A 
ATOM     27  C   UNL     1      48.672  32.870  17.026  1.00  0.00     0.119 A 
BRANCH  27  28
ATOM     28  O   UNL     1      47.454  32.505  16.415  1.00  0.00    -0.491 OA
BRANCH  28  29
ATOM     29  C   UNL     1      47.017  33.129  15.242  1.00  0.00     0.167 C 
ATOM     30  C   UNL     1      46.409  32.081  14.312  1.00  0.00     0.052 C 
ATOM     31  C   UNL     1      46.043  34.235  15.615  1.00  0.00     0.052 C 
ENDBRANCH  28  29
ENDBRANCH  27  28
ENDBRANCH   4  22
TORSDOF 10
ENDMDL
MODEL 15
REMARK VINA RESULT:    -6.422      3.849     10.733
REMARK INTER + INTRA:         -10.800
REMARK INTER:                  -9.804
REMARK INTRA:                  -0.996
REMARK UNBOUND:                -1.000
REMARK SMILES CC(C)C[C@H](C(=O)Nc1cnc(-c2ccc(OC(C)C)cc2)nc1)P(=O)(O)O
REMARK SMILES IDX 9 1 10 2 24 3 12 4 11 5 23 6 8 7 6 8 7 9 5 11 4 12 2 13 1 14
REMARK SMILES IDX 3 15 25 16 26 17 28 18 27 20 13 22 14 23 22 24 15 25 21 26
REMARK SMILES IDX 16 27 17 28 18 29 19 30 20 31
REMARK H PARENT 8 10 28 19 27 21
ROOT
ATOM      1  C   UNL     1      53.410  34.478  19.874  1.00  0.00     0.078 A 
ATOM      2  C   UNL     1      53.330  35.459  20.846  1.00  0.00     0.141 A 
ATOM      3  C   UNL     1      54.610  34.215  19.280  1.00  0.00     0.141 A 
ATOM      4  C   UNL     1      55.605  35.877  20.507  1.00  0.00     0.159 A 
ATOM      5  N   UNL     1      54.449  36.151  21.125  1.00  0.00    -0.234 NA
ATOM      6  N   UNL     1      55.674  34.970  19.591  1.00  0.00    -0.234 NA
ENDROOT
BRANCH   1   7
ATOM      7  N   UNL     1      52.307  33.622  19.486  1.00  0.00    -0.323 N 
ATOM      8  C   UNL     1      51.804  33.530  18.179  1.00  0.00     0.239 C 
ATOM      9  O   UNL     1      52.274  34.125  17.228  1.00  0.00    -0.274 OA
ATOM     10  H   UNL     1      51.864  33.045  20.216  1.00  0.00     0.170 HD
BRANCH   8  11
ATOM     11  C   UNL     1      50.595  32.658  18.172  1.00  0.00     0.194 C 
BRANCH  11  12
ATOM     12  C   UNL     1      49.834  33.005  16.880  1.00  0.00     0.029 C 
BRANCH  12  13
ATOM     13  C   UNL     1      48.430  33.617  16.986  1.00  0.00    -0.016 C 
ATOM     14  C   UNL     1      47.598  33.165  15.774  1.00  0.00     0.007 C 
ATOM     15  C   UNL     1      47.806  33.280  18.336  1.00  0.00     0.007 C 
ENDBRANCH  12  13
ENDBRANCH  11  12
BRANCH  11  16
ATOM     16  P   UNL     1      51.046  30.914  18.320  1.00  0.00     0.337 P 
ATOM     17  O   UNL     1      52.586  30.878  18.394  1.00  0.00    -0.260 OA
BRANCH  16  18
ATOM     18  O   UNL     1      50.530  30.180  17.048  1.00  0.00    -0.324 OA
ATOM     19  H   UNL     1      49.634  30.526  16.807  1.00  0.00     0.221 HD
ENDBRANCH  16  18
BRANCH  16  20
ATOM     20  O   UNL     1      50.353  30.390  19.528  1.00  0.00    -0.324 OA
ATOM     21  H   UNL     1      49.440  30.770  19.575  1.00  0.00     0.221 HD
ENDBRANCH  16  20
ENDBRANCH  11  16
ENDBRANCH   8  11
ENDBRANCH   1   7
BRANCH   4  22
ATOM     22  C   UNL     1      56.932  36.589  20.826  1.00  0.00     0.019 A 
ATOM     23  C   UNL     1      57.516  36.620  22.079  1.00  0.00     0.016 A 
ATOM     24  C   UNL     1      57.510  37.345  19.814  1.00  0.00     0.016 A 
ATOM     25  C   UNL     1      58.713  37.307  22.284  1.00  0.00     0.047 A 
ATOM     26  C   UNL     1      58.688  38.048  20.026  1.00  0.00     0.047 A 
ATOM     27  C   UNL     1      59.303  38.015  21.264  1.00  0.00     0.119 A 
BRANCH  27  28
ATOM     28  O   UNL     1      60.492  38.741  21.494  1.00  0.00    -0.491 OA
BRANCH  28  29
ATOM     29  C   UNL     1      61.566  38.672  20.601  1.00  0.00     0.167 C 
ATOM     30  C   UNL     1      61.824  40.061  20.018  1.00  0.00     0.052 C 
ATOM     31  C   UNL     1      62.768  38.098  21.333  1.00  0.00     0.052 C 
ENDBRANCH  28  29
ENDBRANCH  27  28
ENDBRANCH   4  22
TORSDOF 10
ENDMDL
MODEL 16
REMARK VINA RESULT:    -6.412      4.203      6.078
REMARK INTER + INTRA:         -10.786
REMARK INTER:                  -9.476
REMARK INTRA:                  -1.310
REMARK UNBOUND:                -1.000
REMARK SMILES CC(C)C[C@H](C(=O)Nc1cnc(-c2ccc(OC(C)C)cc2)nc1)P(=O)(O)O
REMARK SMILES IDX 9 1 10 2 24 3 12 4 11 5 23 6 8 7 6 8 7 9 5 11 4 12 2 13 1 14
REMARK SMILES IDX 3 15 25 16 26 17 28 18 27 20 13 22 14 23 22 24 15 25 21 26
REMARK SMILES IDX 16 27 17 28 18 29 19 30 20 31
REMARK H PARENT 8 10 28 19 27 21
ROOT
ATOM      1  C   UNL     1      56.567  37.030  21.269  1.00  0.00     0.078 A 
ATOM      2  C   UNL     1      55.375  37.333  21.902  1.00  0.00     0.141 A 
ATOM      3  C   UNL     1      56.589  36.070  20.299  1.00  0.00     0.141 A 
ATOM      4  C   UNL     1      54.354  35.668  20.618  1.00  0.00     0.159 A 
ATOM      5  N   UNL     1      54.290  36.616  21.561  1.00  0.00    -0.234 NA
ATOM      6  N   UNL     1      55.471  35.378  20.037  1.00  0.00    -0.234 NA
ENDROOT
BRANCH   1   7
ATOM      7  N   UNL     1      57.813  37.733  21.496  1.00  0.00    -0.323 N 
ATOM      8  C   UNL     1      58.317  38.737  20.654  1.00  0.00     0.239 C 
ATOM      9  O   UNL     1      57.733  39.152  19.671  1.00  0.00    -0.274 OA
ATOM     10  H   UNL     1      58.365  37.480  22.329  1.00  0.00     0.170 HD
BRANCH   8  11
ATOM     11  C   UNL     1      59.673  39.144  21.120  1.00  0.00     0.194 C 
BRANCH  11  12
ATOM     12  C   UNL     1      60.604  37.965  20.784  1.00  0.00     0.029 C 
BRANCH  12  13
ATOM     13  C   UNL     1      61.581  37.461  21.855  1.00  0.00    -0.016 C 
ATOM     14  C   UNL     1      60.923  36.303  22.624  1.00  0.00     0.007 C 
ATOM     15  C   UNL     1      62.924  37.111  21.223  1.00  0.00     0.007 C 
ENDBRANCH  12  13
ENDBRANCH  11  12
BRANCH  11  16
ATOM     16  P   UNL     1      60.173  40.715  20.382  1.00  0.00     0.337 P 
ATOM     17  O   UNL     1      61.541  41.061  21.003  1.00  0.00    -0.260 OA
BRANCH  16  18
ATOM     18  O   UNL     1      59.102  41.781  20.760  1.00  0.00    -0.324 OA
ATOM     19  H   UNL     1      59.550  42.584  21.127  1.00  0.00     0.221 HD
ENDBRANCH  16  18
BRANCH  16  20
ATOM     20  O   UNL     1      60.192  40.512  18.908  1.00  0.00    -0.324 OA
ATOM     21  H   UNL     1      59.516  41.099  18.486  1.00  0.00     0.221 HD
ENDBRANCH  16  20
ENDBRANCH  11  16
ENDBRANCH   8  11
ENDBRANCH   1   7
BRANCH   4  22
ATOM     22  C   UNL     1      53.137  34.857  20.139  1.00  0.00     0.019 A 
ATOM     23  C   UNL     1      53.099  34.135  18.961  1.00  0.00     0.016 A 
ATOM     24  C   UNL     1      51.968  34.961  20.883  1.00  0.00     0.016 A 
ATOM     25  C   UNL     1      51.945  33.443  18.592  1.00  0.00     0.047 A 
ATOM     26  C   UNL     1      50.813  34.290  20.502  1.00  0.00     0.047 A 
ATOM     27  C   UNL     1      50.806  33.513  19.358  1.00  0.00     0.119 A 
BRANCH  27  28
ATOM     28  O   UNL     1      49.631  32.843  18.954  1.00  0.00    -0.491 OA
BRANCH  28  29
ATOM     29  C   UNL     1      49.018  33.132  17.730  1.00  0.00     0.167 C 
ATOM     30  C   UNL     1      49.047  31.886  16.847  1.00  0.00     0.052 C 
ATOM     31  C   UNL     1      47.611  33.640  18.001  1.00  0.00     0.052 C 
ENDBRANCH  28  29
ENDBRANCH  27  28
ENDBRANCH   4  22
TORSDOF 10
ENDMDL
MODEL 17
REMARK VINA RESULT:    -6.364      3.548     10.169
REMARK INTER + INTRA:         -10.713
REMARK INTER:                  -9.546
REMARK INTRA:                  -1.166
REMARK UNBOUND:                -1.000
REMARK SMILES CC(C)C[C@H](C(=O)Nc1cnc(-c2ccc(OC(C)C)cc2)nc1)P(=O)(O)O
REMARK SMILES IDX 9 1 10 2 24 3 12 4 11 5 23 6 8 7 6 8 7 9 5 11 4 12 2 13 1 14
REMARK SMILES IDX 3 15 25 16 26 17 28 18 27 20 13 22 14 23 22 24 15 25 21 26
REMARK SMILES IDX 16 27 17 28 18 29 19 30 20 31
REMARK H PARENT 8 10 28 19 27 21
ROOT
ATOM      1  C   UNL     1      51.480  33.753  18.435  1.00  0.00     0.078 A 
ATOM      2  C   UNL     1      52.844  33.982  18.381  1.00  0.00     0.141 A 
ATOM      3  C   UNL     1      50.746  34.302  19.446  1.00  0.00     0.141 A 
ATOM      4  C   UNL     1      52.642  35.211  20.359  1.00  0.00     0.159 A 
ATOM      5  N   UNL     1      53.393  34.704  19.373  1.00  0.00    -0.234 NA
ATOM      6  N   UNL     1      51.372  34.985  20.414  1.00  0.00    -0.234 NA
ENDROOT
BRANCH   1   7
ATOM      7  N   UNL     1      50.734  33.028  17.427  1.00  0.00    -0.323 N 
ATOM      8  C   UNL     1      50.360  31.681  17.541  1.00  0.00     0.239 C 
ATOM      9  O   UNL     1      50.584  30.995  18.520  1.00  0.00    -0.274 OA
ATOM     10  H   UNL     1      50.460  33.535  16.572  1.00  0.00     0.170 HD
BRANCH   8  11
ATOM     11  C   UNL     1      49.721  31.233  16.271  1.00  0.00     0.194 C 
BRANCH  11  12
ATOM     12  C   UNL     1      49.101  32.495  15.644  1.00  0.00     0.029 C 
BRANCH  12  13
ATOM     13  C   UNL     1      47.603  32.765  15.845  1.00  0.00    -0.016 C 
ATOM     14  C   UNL     1      47.437  34.005  16.739  1.00  0.00     0.007 C 
ATOM     15  C   UNL     1      46.899  32.865  14.496  1.00  0.00     0.007 C 
ENDBRANCH  12  13
ENDBRANCH  11  12
BRANCH  11  16
ATOM     16  P   UNL     1      50.910  30.385  15.206  1.00  0.00     0.337 P 
ATOM     17  O   UNL     1      50.684  30.944  13.787  1.00  0.00    -0.260 OA
BRANCH  16  18
ATOM     18  O   UNL     1      50.597  28.861  15.263  1.00  0.00    -0.324 OA
ATOM     19  H   UNL     1      49.834  28.658  14.665  1.00  0.00     0.221 HD
ENDBRANCH  16  18
BRANCH  16  20
ATOM     20  O   UNL     1      52.260  30.651  15.771  1.00  0.00    -0.324 OA
ATOM     21  H   UNL     1      52.189  31.326  16.491  1.00  0.00     0.221 HD
ENDBRANCH  16  20
ENDBRANCH  11  16
ENDBRANCH   8  11
ENDBRANCH   1   7
BRANCH   4  22
ATOM     22  C   UNL     1      53.201  36.096  21.488  1.00  0.00     0.019 A 
ATOM     23  C   UNL     1      54.515  36.517  21.566  1.00  0.00     0.016 A 
ATOM     24  C   UNL     1      52.355  36.384  22.552  1.00  0.00     0.016 A 
ATOM     25  C   UNL     1      54.943  37.304  22.637  1.00  0.00     0.047 A 
ATOM     26  C   UNL     1      52.788  37.147  23.627  1.00  0.00     0.047 A 
ATOM     27  C   UNL     1      54.086  37.624  23.663  1.00  0.00     0.119 A 
BRANCH  27  28
ATOM     28  O   UNL     1      54.541  38.384  24.762  1.00  0.00    -0.491 OA
BRANCH  28  29
ATOM     29  C   UNL     1      53.978  38.227  26.033  1.00  0.00     0.167 C 
ATOM     30  C   UNL     1      55.096  38.134  27.069  1.00  0.00     0.052 C 
ATOM     31  C   UNL     1      53.023  39.383  26.286  1.00  0.00     0.052 C 
ENDBRANCH  28  29
ENDBRANCH  27  28
ENDBRANCH   4  22
TORSDOF 10
ENDMDL
MODEL 18
REMARK VINA RESULT:    -6.337      5.445      8.093
REMARK INTER + INTRA:         -10.672
REMARK INTER:                  -9.216
REMARK INTRA:                  -1.456
REMARK UNBOUND:                -1.000
REMARK SMILES CC(C)C[C@H](C(=O)Nc1cnc(-c2ccc(OC(C)C)cc2)nc1)P(=O)(O)O
REMARK SMILES IDX 9 1 10 2 24 3 12 4 11 5 23 6 8 7 6 8 7 9 5 11 4 12 2 13 1 14
REMARK SMILES IDX 3 15 25 16 26 17 28 18 27 20 13 22 14 23 22 24 15 25 21 26
REMARK SMILES IDX 16 27 17 28 18 29 19 30 20 31
REMARK H PARENT 8 10 28 19 27 21
ROOT
ATOM      1  C   UNL     1      58.401  38.140  20.783  1.00  0.00     0.078 A 
ATOM      2  C   UNL     1      57.868  37.749  21.998  1.00  0.00     0.141 A 
ATOM      3  C   UNL     1      57.778  37.774  19.626  1.00  0.00     0.141 A 
ATOM      4  C   UNL     1      56.199  36.615  20.818  1.00  0.00     0.159 A 
ATOM      5  N   UNL     1      56.772  36.970  21.975  1.00  0.00    -0.234 NA
ATOM      6  N   UNL     1      56.706  36.971  19.685  1.00  0.00    -0.234 NA
ENDROOT
BRANCH   1   7
ATOM      7  N   UNL     1      59.553  39.007  20.639  1.00  0.00    -0.323 N 
ATOM      8  C   UNL     1      59.484  40.408  20.607  1.00  0.00     0.239 C 
ATOM      9  O   UNL     1      58.454  41.040  20.744  1.00  0.00    -0.274 OA
ATOM     10  H   UNL     1      60.481  38.567  20.555  1.00  0.00     0.170 HD
BRANCH   8  11
ATOM     11  C   UNL     1      60.837  40.966  20.319  1.00  0.00     0.194 C 
BRANCH  11  12
ATOM     12  C   UNL     1      61.698  40.637  21.551  1.00  0.00     0.029 C 
BRANCH  12  13
ATOM     13  C   UNL     1      62.653  41.706  22.098  1.00  0.00    -0.016 C 
ATOM     14  C   UNL     1      62.135  43.094  21.683  1.00  0.00     0.007 C 
ATOM     15  C   UNL     1      62.840  41.531  23.601  1.00  0.00     0.007 C 
ENDBRANCH  12  13
ENDBRANCH  11  12
BRANCH  11  16
ATOM     16  P   UNL     1      61.492  40.319  18.764  1.00  0.00     0.337 P 
ATOM     17  O   UNL     1      60.265  39.977  17.895  1.00  0.00    -0.260 OA
BRANCH  16  18
ATOM     18  O   UNL     1      62.320  39.042  19.091  1.00  0.00    -0.324 OA
ATOM     19  H   UNL     1      61.981  38.282  18.553  1.00  0.00     0.221 HD
ENDBRANCH  16  18
BRANCH  16  20
ATOM     20  O   UNL     1      62.379  41.372  18.199  1.00  0.00    -0.324 OA
ATOM     21  H   UNL     1      62.723  41.076  17.319  1.00  0.00     0.221 HD
ENDBRANCH  16  20
ENDBRANCH  11  16
ENDBRANCH   8  11
ENDBRANCH   1   7
BRANCH   4  22
ATOM     22  C   UNL     1      54.910  35.779  20.725  1.00  0.00     0.019 A 
ATOM     23  C   UNL     1      54.705  34.767  19.805  1.00  0.00     0.016 A 
ATOM     24  C   UNL     1      53.848  36.150  21.540  1.00  0.00     0.016 A 
ATOM     25  C   UNL     1      53.495  34.071  19.778  1.00  0.00     0.047 A 
ATOM     26  C   UNL     1      52.637  35.472  21.496  1.00  0.00     0.047 A 
ATOM     27  C   UNL     1      52.465  34.415  20.621  1.00  0.00     0.119 A 
BRANCH  27  28
ATOM     28  O   UNL     1      51.232  33.732  20.556  1.00  0.00    -0.491 OA
BRANCH  28  29
ATOM     29  C   UNL     1      50.816  33.099  19.379  1.00  0.00     0.167 C 
ATOM     30  C   UNL     1      50.870  31.585  19.576  1.00  0.00     0.052 C 
ATOM     31  C   UNL     1      49.428  33.606  19.021  1.00  0.00     0.052 C 
ENDBRANCH  28  29
ENDBRANCH  27  28
ENDBRANCH   4  22
TORSDOF 10
ENDMDL
MODEL 19
REMARK VINA RESULT:    -6.229      4.158      5.801
REMARK INTER + INTRA:         -10.507
REMARK INTER:                  -9.080
REMARK INTRA:                  -1.427
REMARK UNBOUND:                -1.000
REMARK SMILES CC(C)C[C@H](C(=O)Nc1cnc(-c2ccc(OC(C)C)cc2)nc1)P(=O)(O)O
REMARK SMILES IDX 9 1 10 2 24 3 12 4 11 5 23 6 8 7 6 8 7 9 5 11 4 12 2 13 1 14
REMARK SMILES IDX 3 15 25 16 26 17 28 18 27 20 13 22 14 23 22 24 15 25 21 26
REMARK SMILES IDX 16 27 17 28 18 29 19 30 20 31
REMARK H PARENT 8 10 28 19 27 21
ROOT
ATOM      1  C   UNL     1      56.767  35.815  20.159  1.00  0.00     0.078 A 
ATOM      2  C   UNL     1      55.753  36.283  20.976  1.00  0.00     0.141 A 
ATOM      3  C   UNL     1      56.477  34.919  19.172  1.00  0.00     0.141 A 
ATOM      4  C   UNL     1      54.277  34.888  19.818  1.00  0.00     0.159 A 
ATOM      5  N   UNL     1      54.520  35.782  20.786  1.00  0.00    -0.234 NA
ATOM      6  N   UNL     1      55.227  34.444  19.065  1.00  0.00    -0.234 NA
ENDROOT
BRANCH   1   7
ATOM      7  N   UNL     1      58.138  36.281  20.212  1.00  0.00    -0.323 N 
ATOM      8  C   UNL     1      59.150  35.666  20.964  1.00  0.00     0.239 C 
ATOM      9  O   UNL     1      58.990  34.650  21.613  1.00  0.00    -0.274 OA
ATOM     10  H   UNL     1      58.385  37.117  19.662  1.00  0.00     0.170 HD
BRANCH   8  11
ATOM     11  C   UNL     1      60.395  36.483  20.886  1.00  0.00     0.194 C 
BRANCH  11  12
ATOM     12  C   UNL     1      60.036  37.854  21.488  1.00  0.00     0.029 C 
BRANCH  12  13
ATOM     13  C   UNL     1      60.272  39.119  20.651  1.00  0.00    -0.016 C 
ATOM     14  C   UNL     1      58.965  39.927  20.594  1.00  0.00     0.007 C 
ATOM     15  C   UNL     1      61.467  39.896  21.192  1.00  0.00     0.007 C 
ENDBRANCH  12  13
ENDBRANCH  11  12
BRANCH  11  16
ATOM     16  P   UNL     1      61.774  35.653  21.706  1.00  0.00     0.337 P 
ATOM     17  O   UNL     1      62.989  36.589  21.549  1.00  0.00    -0.260 OA
BRANCH  16  18
ATOM     18  O   UNL     1      62.014  34.298  20.978  1.00  0.00    -0.324 OA
ATOM     19  H   UNL     1      62.564  33.707  21.552  1.00  0.00     0.221 HD
ENDBRANCH  16  18
BRANCH  16  20
ATOM     20  O   UNL     1      61.356  35.409  23.113  1.00  0.00    -0.324 OA
ATOM     21  H   UNL     1      61.177  34.444  23.242  1.00  0.00     0.221 HD
ENDBRANCH  16  20
ENDBRANCH  11  16
ENDBRANCH   8  11
ENDBRANCH   1   7
BRANCH   4  22
ATOM     22  C   UNL     1      52.878  34.325  19.509  1.00  0.00     0.019 A 
ATOM     23  C   UNL     1      51.913  34.075  20.467  1.00  0.00     0.016 A 
ATOM     24  C   UNL     1      52.622  33.933  18.201  1.00  0.00     0.016 A 
ATOM     25  C   UNL     1      50.675  33.544  20.102  1.00  0.00     0.047 A 
ATOM     26  C   UNL     1      51.399  33.383  17.843  1.00  0.00     0.047 A 
ATOM     27  C   UNL     1      50.412  33.202  18.796  1.00  0.00     0.119 A 
BRANCH  27  28
ATOM     28  O   UNL     1      49.173  32.626  18.445  1.00  0.00    -0.491 OA
BRANCH  28  29
ATOM     29  C   UNL     1      48.568  32.905  17.214  1.00  0.00     0.167 C 
ATOM     30  C   UNL     1      47.699  31.719  16.802  1.00  0.00     0.052 C 
ATOM     31  C   UNL     1      47.787  34.203  17.342  1.00  0.00     0.052 C 
ENDBRANCH  28  29
ENDBRANCH  27  28
ENDBRANCH   4  22
TORSDOF 10
ENDMDL
MODEL 20
REMARK VINA RESULT:    -5.997      3.695     10.512
REMARK INTER + INTRA:         -10.152
REMARK INTER:                  -9.168
REMARK INTRA:                  -0.984
REMARK UNBOUND:                -1.000
REMARK SMILES CC(C)C[C@H](C(=O)Nc1cnc(-c2ccc(OC(C)C)cc2)nc1)P(=O)(O)O
REMARK SMILES IDX 9 1 10 2 24 3 12 4 11 5 23 6 8 7 6 8 7 9 5 11 4 12 2 13 1 14
REMARK SMILES IDX 3 15 25 16 26 17 28 18 27 20 13 22 14 23 22 24 15 25 21 26
REMARK SMILES IDX 16 27 17 28 18 29 19 30 20 31
REMARK H PARENT 8 10 28 19 27 21
ROOT
ATOM      1  C   UNL     1      49.109  32.703  17.638  1.00  0.00     0.078 A 
ATOM      2  C   UNL     1      49.077  33.978  18.173  1.00  0.00     0.141 A 
ATOM      3  C   UNL     1      50.272  31.990  17.667  1.00  0.00     0.141 A 
ATOM      4  C   UNL     1      51.354  33.756  18.650  1.00  0.00     0.159 A 
ATOM      5  N   UNL     1      50.227  34.479  18.656  1.00  0.00    -0.234 NA
ATOM      6  N   UNL     1      51.384  32.570  18.139  1.00  0.00    -0.234 NA
ENDROOT
BRANCH   1   7
ATOM      7  N   UNL     1      47.950  32.009  17.113  1.00  0.00    -0.323 N 
ATOM      8  C   UNL     1      47.603  31.972  15.754  1.00  0.00     0.239 C 
ATOM      9  O   UNL     1      48.268  32.480  14.871  1.00  0.00    -0.274 OA
ATOM     10  H   UNL     1      47.342  31.512  17.780  1.00  0.00     0.170 HD
BRANCH   8  11
ATOM     11  C   UNL     1      46.291  31.283  15.594  1.00  0.00     0.194 C 
BRANCH  11  12
ATOM     12  C   UNL     1      45.224  32.389  15.668  1.00  0.00     0.029 C 
BRANCH  12  13
ATOM     13  C   UNL     1      45.655  33.851  15.491  1.00  0.00    -0.016 C 
ATOM     14  C   UNL     1      44.988  34.416  14.226  1.00  0.00     0.007 C 
ATOM     15  C   UNL     1      45.367  34.646  16.761  1.00  0.00     0.007 C 
ENDBRANCH  12  13
ENDBRANCH  11  12
BRANCH  11  16
ATOM     16  P   UNL     1      46.245  30.311  14.071  1.00  0.00     0.337 P 
ATOM     17  O   UNL     1      45.693  31.253  12.982  1.00  0.00    -0.260 OA
BRANCH  16  18
ATOM     18  O   UNL     1      45.290  29.104  14.305  1.00  0.00    -0.324 OA
ATOM     19  H   UNL     1      44.880  29.177  15.203  1.00  0.00     0.221 HD
ENDBRANCH  16  18
BRANCH  16  20
ATOM     20  O   UNL     1      47.631  29.826  13.827  1.00  0.00    -0.324 OA
ATOM     21  H   UNL     1      47.598  28.973  13.326  1.00  0.00     0.221 HD
ENDBRANCH  16  20
ENDBRANCH  11  16
ENDBRANCH   8  11
ENDBRANCH   1   7
BRANCH   4  22
ATOM     22  C   UNL     1      52.686  34.247  19.244  1.00  0.00     0.019 A 
ATOM     23  C   UNL     1      52.791  35.007  20.395  1.00  0.00     0.016 A 
ATOM     24  C   UNL     1      53.840  34.012  18.507  1.00  0.00     0.016 A 
ATOM     25  C   UNL     1      54.039  35.428  20.854  1.00  0.00     0.047 A 
ATOM     26  C   UNL     1      55.079  34.451  18.952  1.00  0.00     0.047 A 
ATOM     27  C   UNL     1      55.182  35.149  20.142  1.00  0.00     0.119 A 
BRANCH  27  28
ATOM     28  O   UNL     1      56.436  35.617  20.593  1.00  0.00    -0.491 OA
BRANCH  28  29
ATOM     29  C   UNL     1      57.504  35.792  19.707  1.00  0.00     0.167 C 
ATOM     30  C   UNL     1      57.600  37.266  19.321  1.00  0.00     0.052 C 
ATOM     31  C   UNL     1      58.769  35.262  20.364  1.00  0.00     0.052 C 
ENDBRANCH  28  29
ENDBRANCH  27  28
ENDBRANCH   4  22
TORSDOF 10
ENDMDL
