MODEL 1
REMARK VINA RESULT:    -7.931      0.000      0.000
REMARK INTER + INTRA:         -14.082
REMARK INTER:                 -12.567
REMARK INTRA:                  -1.515
REMARK UNBOUND:                -1.515
REMARK SMILES CC(C)C[C@@H](C(=O)N[C@@H](Cc1ccccn1)C(=O)Nc1ccc(Cl)c(Cl)c1)P(=O)(O)O
REMARK SMILES IDX 8 1 6 2 7 3 9 5 17 6 19 7 18 8 20 10 27 11 21 12 25 13 22 14
REMARK SMILES IDX 23 15 26 16 24 17 10 18 11 19 12 20 16 21 13 22 15 23 14 24
REMARK SMILES IDX 5 25 4 26 2 27 1 28 3 29 28 30 29 31 31 32 30 34
REMARK H PARENT 8 4 19 9 31 33 30 35
ROOT
ATOM      1  N   UNL     1      51.710  33.922  20.702  1.00  0.00    -0.343 N 
ATOM      2  C   UNL     1      53.071  34.355  20.946  1.00  0.00     0.235 C 
ATOM      3  O   UNL     1      53.952  33.916  20.285  1.00  0.00    -0.274 OA
ATOM      4  H   UNL     1      50.956  34.294  21.295  1.00  0.00     0.164 HD
ENDROOT
BRANCH   1   5
ATOM      5  C   UNL     1      51.376  32.981  19.649  1.00  0.00     0.177 C 
BRANCH   5   6
ATOM      6  C   UNL     1      50.162  33.551  18.924  1.00  0.00     0.247 C 
ATOM      7  N   UNL     1      49.272  32.619  18.251  1.00  0.00    -0.324 N 
ATOM      8  O   UNL     1      49.959  34.717  18.910  1.00  0.00    -0.272 OA
ATOM      9  H   UNL     1      49.485  31.612  18.305  1.00  0.00     0.170 HD
BRANCH   7  10
ATOM     10  C   UNL     1      48.101  33.040  17.506  1.00  0.00     0.042 A 
ATOM     11  C   UNL     1      46.895  32.439  17.836  1.00  0.00     0.048 A 
ATOM     12  C   UNL     1      48.156  33.994  16.499  1.00  0.00     0.028 A 
ATOM     13  C   UNL     1      45.734  32.794  17.167  1.00  0.00     0.061 A 
ATOM     14  C   UNL     1      46.989  34.348  15.831  1.00  0.00     0.024 A 
ATOM     15  C   UNL     1      45.779  33.747  16.159  1.00  0.00     0.059 A 
ATOM     16  Cl  UNL     1      44.194  32.009  17.608  1.00  0.00    -0.083 Cl
ATOM     17  Cl  UNL     1      44.283  34.199  15.288  1.00  0.00    -0.083 Cl
ENDBRANCH   7  10
ENDBRANCH   5   6
BRANCH   5  18
ATOM     18  C   UNL     1      51.019  31.662  20.305  1.00  0.00     0.091 C 
BRANCH  18  19
ATOM     19  C   UNL     1      51.808  30.508  19.679  1.00  0.00     0.043 A 
ATOM     20  C   UNL     1      53.021  30.760  19.045  1.00  0.00     0.024 A 
ATOM     21  N   UNL     1      51.328  29.278  19.744  1.00  0.00    -0.261 NA
ATOM     22  C   UNL     1      53.734  29.711  18.469  1.00  0.00     0.003 A 
ATOM     23  C   UNL     1      51.981  28.256  19.212  1.00  0.00     0.111 A 
ATOM     24  C   UNL     1      53.196  28.431  18.560  1.00  0.00     0.020 A 
ENDBRANCH  18  19
ENDBRANCH   5  18
ENDBRANCH   1   5
BRANCH   2  25
ATOM     25  C   UNL     1      53.350  35.371  22.052  1.00  0.00     0.193 C 
BRANCH  25  26
ATOM     26  C   UNL     1      52.552  35.091  23.310  1.00  0.00     0.029 C 
BRANCH  26  27
ATOM     27  C   UNL     1      53.416  34.895  24.543  1.00  0.00    -0.016 C 
ATOM     28  C   UNL     1      54.427  33.785  24.264  1.00  0.00     0.007 C 
ATOM     29  C   UNL     1      54.154  36.131  25.033  1.00  0.00     0.007 C 
ENDBRANCH  26  27
ENDBRANCH  25  26
BRANCH  25  30
ATOM     30  P   UNL     1      52.908  37.058  21.403  1.00  0.00     0.337 P 
ATOM     31  O   UNL     1      54.132  37.648  20.753  1.00  0.00    -0.260 OA
BRANCH  30  32
ATOM     32  O   UNL     1      51.818  36.982  20.372  1.00  0.00    -0.324 OA
ATOM     33  H   UNL     1      51.542  36.039  20.251  1.00  0.00     0.221 HD
ENDBRANCH  30  32
BRANCH  30  34
ATOM     34  O   UNL     1      52.484  37.954  22.536  1.00  0.00    -0.324 OA
ATOM     35  H   UNL     1      52.800  38.877  22.363  1.00  0.00     0.221 HD
ENDBRANCH  30  34
ENDBRANCH  25  30
ENDBRANCH   2  25
TORSDOF 11
ENDMDL
MODEL 2
REMARK VINA RESULT:    -7.882      6.530      9.331
REMARK INTER + INTRA:         -14.005
REMARK INTER:                 -11.589
REMARK INTRA:                  -2.416
REMARK UNBOUND:                -1.515
REMARK SMILES CC(C)C[C@@H](C(=O)N[C@@H](Cc1ccccn1)C(=O)Nc1ccc(Cl)c(Cl)c1)P(=O)(O)O
REMARK SMILES IDX 8 1 6 2 7 3 9 5 17 6 19 7 18 8 20 10 27 11 21 12 25 13 22 14
REMARK SMILES IDX 23 15 26 16 24 17 10 18 11 19 12 20 16 21 13 22 15 23 14 24
REMARK SMILES IDX 5 25 4 26 2 27 1 28 3 29 28 30 29 31 31 32 30 34
REMARK H PARENT 8 4 19 9 31 33 30 35
ROOT
ATOM      1  N   UNL     1      54.549  36.664  20.997  1.00  0.00    -0.343 N 
ATOM      2  C   UNL     1      53.158  37.028  21.173  1.00  0.00     0.235 C 
ATOM      3  O   UNL     1      52.856  38.173  21.240  1.00  0.00    -0.274 OA
ATOM      4  H   UNL     1      54.802  35.667  20.961  1.00  0.00     0.164 HD
ENDROOT
BRANCH   1   5
ATOM      5  C   UNL     1      55.598  37.659  20.869  1.00  0.00     0.177 C 
BRANCH   5   6
ATOM      6  C   UNL     1      56.301  37.385  19.545  1.00  0.00     0.247 C 
ATOM      7  N   UNL     1      57.488  38.163  19.231  1.00  0.00    -0.324 N 
ATOM      8  O   UNL     1      55.885  36.565  18.799  1.00  0.00    -0.272 OA
ATOM      9  H   UNL     1      57.818  38.854  19.920  1.00  0.00     0.170 HD
BRANCH   7  10
ATOM     10  C   UNL     1      58.229  38.013  17.993  1.00  0.00     0.042 A 
ATOM     11  C   UNL     1      59.193  37.017  17.952  1.00  0.00     0.048 A 
ATOM     12  C   UNL     1      58.008  38.821  16.885  1.00  0.00     0.028 A 
ATOM     13  C   UNL     1      59.938  36.816  16.801  1.00  0.00     0.061 A 
ATOM     14  C   UNL     1      58.757  38.615  15.732  1.00  0.00     0.024 A 
ATOM     15  C   UNL     1      59.725  37.617  15.689  1.00  0.00     0.059 A 
ATOM     16  Cl  UNL     1      61.173  35.528  16.771  1.00  0.00    -0.083 Cl
ATOM     17  Cl  UNL     1      60.693  37.365  14.205  1.00  0.00    -0.083 Cl
ENDBRANCH   7  10
ENDBRANCH   5   6
BRANCH   5  18
ATOM     18  C   UNL     1      56.563  37.463  22.022  1.00  0.00     0.091 C 
BRANCH  18  19
ATOM     19  C   UNL     1      55.874  37.733  23.363  1.00  0.00     0.043 A 
ATOM     20  C   UNL     1      56.018  36.830  24.412  1.00  0.00     0.024 A 
ATOM     21  N   UNL     1      55.144  38.825  23.514  1.00  0.00    -0.261 NA
ATOM     22  C   UNL     1      55.385  37.073  25.628  1.00  0.00     0.003 A 
ATOM     23  C   UNL     1      54.532  39.091  24.658  1.00  0.00     0.111 A 
ATOM     24  C   UNL     1      54.627  38.234  25.748  1.00  0.00     0.020 A 
ENDBRANCH  18  19
ENDBRANCH   5  18
ENDBRANCH   1   5
BRANCH   2  25
ATOM     25  C   UNL     1      52.100  35.929  21.271  1.00  0.00     0.193 C 
BRANCH  25  26
ATOM     26  C   UNL     1      52.471  34.856  22.274  1.00  0.00     0.029 C 
BRANCH  26  27
ATOM     27  C   UNL     1      52.729  35.396  23.669  1.00  0.00    -0.016 C 
ATOM     28  C   UNL     1      51.485  36.143  24.146  1.00  0.00     0.007 C 
ATOM     29  C   UNL     1      53.123  34.363  24.714  1.00  0.00     0.007 C 
ENDBRANCH  26  27
ENDBRANCH  25  26
BRANCH  25  30
ATOM     30  P   UNL     1      51.915  35.163  19.586  1.00  0.00     0.337 P 
ATOM     31  O   UNL     1      51.320  33.791  19.755  1.00  0.00    -0.260 OA
BRANCH  30  32
ATOM     32  O   UNL     1      50.996  35.970  18.712  1.00  0.00    -0.324 OA
ATOM     33  H   UNL     1      50.189  36.223  19.226  1.00  0.00     0.221 HD
ENDBRANCH  30  32
BRANCH  30  34
ATOM     34  O   UNL     1      53.262  35.026  18.928  1.00  0.00    -0.324 OA
ATOM     35  H   UNL     1      53.885  35.696  19.307  1.00  0.00     0.221 HD
ENDBRANCH  30  34
ENDBRANCH  25  30
ENDBRANCH   2  25
TORSDOF 11
ENDMDL
MODEL 3
REMARK VINA RESULT:    -7.845      4.491      7.939
REMARK INTER + INTRA:         -13.947
REMARK INTER:                 -11.424
REMARK INTRA:                  -2.523
REMARK UNBOUND:                -1.515
REMARK SMILES CC(C)C[C@@H](C(=O)N[C@@H](Cc1ccccn1)C(=O)Nc1ccc(Cl)c(Cl)c1)P(=O)(O)O
REMARK SMILES IDX 8 1 6 2 7 3 9 5 17 6 19 7 18 8 20 10 27 11 21 12 25 13 22 14
REMARK SMILES IDX 23 15 26 16 24 17 10 18 11 19 12 20 16 21 13 22 15 23 14 24
REMARK SMILES IDX 5 25 4 26 2 27 1 28 3 29 28 30 29 31 31 32 30 34
REMARK H PARENT 8 4 19 9 31 33 30 35
ROOT
ATOM      1  N   UNL     1      52.657  33.243  20.162  1.00  0.00    -0.343 N 
ATOM      2  C   UNL     1      51.516  32.432  19.790  1.00  0.00     0.235 C 
ATOM      3  O   UNL     1      51.373  31.363  20.283  1.00  0.00    -0.274 OA
ATOM      4  H   UNL     1      52.783  34.161  19.713  1.00  0.00     0.164 HD
ENDROOT
BRANCH   1   5
ATOM      5  C   UNL     1      53.630  32.804  21.146  1.00  0.00     0.177 C 
BRANCH   5   6
ATOM      6  C   UNL     1      53.535  33.776  22.317  1.00  0.00     0.247 C 
ATOM      7  N   UNL     1      52.777  35.001  22.124  1.00  0.00    -0.324 N 
ATOM      8  O   UNL     1      54.070  33.536  23.346  1.00  0.00    -0.272 OA
ATOM      9  H   UNL     1      52.319  35.156  21.215  1.00  0.00     0.170 HD
BRANCH   7  10
ATOM     10  C   UNL     1      52.636  36.015  23.152  1.00  0.00     0.042 A 
ATOM     11  C   UNL     1      53.645  36.961  23.247  1.00  0.00     0.048 A 
ATOM     12  C   UNL     1      51.553  36.055  24.021  1.00  0.00     0.028 A 
ATOM     13  C   UNL     1      53.576  37.960  24.205  1.00  0.00     0.061 A 
ATOM     14  C   UNL     1      51.487  37.060  24.980  1.00  0.00     0.024 A 
ATOM     15  C   UNL     1      52.498  38.010  25.077  1.00  0.00     0.059 A 
ATOM     16  Cl  UNL     1      54.885  39.168  24.308  1.00  0.00    -0.083 Cl
ATOM     17  Cl  UNL     1      52.411  39.293  26.322  1.00  0.00    -0.083 Cl
ENDBRANCH   7  10
ENDBRANCH   5   6
BRANCH   5  18
ATOM     18  C   UNL     1      55.002  32.888  20.509  1.00  0.00     0.091 C 
BRANCH  18  19
ATOM     19  C   UNL     1      55.550  34.317  20.575  1.00  0.00     0.043 A 
ATOM     20  C   UNL     1      56.682  34.593  21.335  1.00  0.00     0.024 A 
ATOM     21  N   UNL     1      54.938  35.281  19.909  1.00  0.00    -0.261 NA
ATOM     22  C   UNL     1      57.174  35.893  21.401  1.00  0.00     0.003 A 
ATOM     23  C   UNL     1      55.380  36.529  19.944  1.00  0.00     0.111 A 
ATOM     24  C   UNL     1      56.503  36.880  20.684  1.00  0.00     0.020 A 
ENDBRANCH  18  19
ENDBRANCH   5  18
ENDBRANCH   1   5
BRANCH   2  25
ATOM     25  C   UNL     1      50.514  32.967  18.769  1.00  0.00     0.193 C 
BRANCH  25  26
ATOM     26  C   UNL     1      50.744  32.402  17.381  1.00  0.00     0.029 C 
BRANCH  26  27
ATOM     27  C   UNL     1      49.470  31.934  16.701  1.00  0.00    -0.016 C 
ATOM     28  C   UNL     1      48.392  31.728  17.763  1.00  0.00     0.007 C 
ATOM     29  C   UNL     1      48.930  32.848  15.612  1.00  0.00     0.007 C 
ENDBRANCH  26  27
ENDBRANCH  25  26
BRANCH  25  30
ATOM     30  P   UNL     1      50.684  34.819  18.717  1.00  0.00     0.337 P 
ATOM     31  O   UNL     1      52.000  35.153  18.066  1.00  0.00    -0.260 OA
BRANCH  30  32
ATOM     32  O   UNL     1      49.585  35.451  17.909  1.00  0.00    -0.324 OA
ATOM     33  H   UNL     1      49.057  34.744  17.461  1.00  0.00     0.221 HD
ENDBRANCH  30  32
BRANCH  30  34
ATOM     34  O   UNL     1      50.683  35.379  20.115  1.00  0.00    -0.324 OA
ATOM     35  H   UNL     1      51.235  36.200  20.142  1.00  0.00     0.221 HD
ENDBRANCH  30  34
ENDBRANCH  25  30
ENDBRANCH   2  25
TORSDOF 11
ENDMDL
MODEL 4
REMARK VINA RESULT:    -7.776      1.791      2.693
REMARK INTER + INTRA:         -13.837
REMARK INTER:                 -11.862
REMARK INTRA:                  -1.975
REMARK UNBOUND:                -1.515
REMARK SMILES CC(C)C[C@@H](C(=O)N[C@@H](Cc1ccccn1)C(=O)Nc1ccc(Cl)c(Cl)c1)P(=O)(O)O
REMARK SMILES IDX 8 1 6 2 7 3 9 5 17 6 19 7 18 8 20 10 27 11 21 12 25 13 22 14
REMARK SMILES IDX 23 15 26 16 24 17 10 18 11 19 12 20 16 21 13 22 15 23 14 24
REMARK SMILES IDX 5 25 4 26 2 27 1 28 3 29 28 30 29 31 31 32 30 34
REMARK H PARENT 8 4 19 9 31 33 30 35
ROOT
ATOM      1  N   UNL     1      51.815  34.475  19.837  1.00  0.00    -0.343 N 
ATOM      2  C   UNL     1      51.974  35.694  20.603  1.00  0.00     0.235 C 
ATOM      3  O   UNL     1      51.822  36.743  20.072  1.00  0.00    -0.274 OA
ATOM      4  H   UNL     1      51.969  33.570  20.303  1.00  0.00     0.164 HD
ENDROOT
BRANCH   1   5
ATOM      5  C   UNL     1      51.445  34.487  18.433  1.00  0.00     0.177 C 
BRANCH   5   6
ATOM      6  C   UNL     1      49.976  34.085  18.366  1.00  0.00     0.247 C 
ATOM      7  N   UNL     1      49.370  33.939  17.052  1.00  0.00    -0.324 N 
ATOM      8  O   UNL     1      49.353  33.905  19.356  1.00  0.00    -0.272 OA
ATOM      9  H   UNL     1      49.959  34.093  16.221  1.00  0.00     0.170 HD
BRANCH   7  10
ATOM     10  C   UNL     1      47.977  33.586  16.858  1.00  0.00     0.042 A 
ATOM     11  C   UNL     1      47.195  34.477  16.137  1.00  0.00     0.048 A 
ATOM     12  C   UNL     1      47.421  32.419  17.365  1.00  0.00     0.028 A 
ATOM     13  C   UNL     1      45.856  34.204  15.912  1.00  0.00     0.061 A 
ATOM     14  C   UNL     1      46.077  32.148  17.135  1.00  0.00     0.024 A 
ATOM     15  C   UNL     1      45.292  33.041  16.414  1.00  0.00     0.059 A 
ATOM     16  Cl  UNL     1      44.870  35.365  14.981  1.00  0.00    -0.083 Cl
ATOM     17  Cl  UNL     1      43.559  32.691  16.132  1.00  0.00    -0.083 Cl
ENDBRANCH   7  10
ENDBRANCH   5   6
BRANCH   5  18
ATOM     18  C   UNL     1      52.300  33.457  17.721  1.00  0.00     0.091 C 
BRANCH  18  19
ATOM     19  C   UNL     1      52.378  32.159  18.529  1.00  0.00     0.043 A 
ATOM     20  C   UNL     1      51.365  31.212  18.424  1.00  0.00     0.024 A 
ATOM     21  N   UNL     1      53.413  31.948  19.326  1.00  0.00    -0.261 NA
ATOM     22  C   UNL     1      51.434  30.036  19.166  1.00  0.00     0.003 A 
ATOM     23  C   UNL     1      53.514  30.839  20.042  1.00  0.00     0.111 A 
ATOM     24  C   UNL     1      52.539  29.850  19.991  1.00  0.00     0.020 A 
ENDBRANCH  18  19
ENDBRANCH   5  18
ENDBRANCH   1   5
BRANCH   2  25
ATOM     25  C   UNL     1      52.336  35.608  22.085  1.00  0.00     0.193 C 
BRANCH  25  26
ATOM     26  C   UNL     1      52.953  36.892  22.605  1.00  0.00     0.029 C 
BRANCH  26  27
ATOM     27  C   UNL     1      52.282  37.419  23.861  1.00  0.00    -0.016 C 
ATOM     28  C   UNL     1      51.372  36.330  24.427  1.00  0.00     0.007 C 
ATOM     29  C   UNL     1      53.220  37.905  24.955  1.00  0.00     0.007 C 
ENDBRANCH  26  27
ENDBRANCH  25  26
BRANCH  25  30
ATOM     30  P   UNL     1      53.546  34.211  22.298  1.00  0.00     0.337 P 
ATOM     31  O   UNL     1      54.328  34.454  23.562  1.00  0.00    -0.260 OA
BRANCH  30  32
ATOM     32  O   UNL     1      52.842  32.889  22.427  1.00  0.00    -0.324 OA
ATOM     33  H   UNL     1      52.250  32.905  23.220  1.00  0.00     0.221 HD
ENDBRANCH  30  32
BRANCH  30  34
ATOM     34  O   UNL     1      54.504  34.174  21.138  1.00  0.00    -0.324 OA
ATOM     35  H   UNL     1      54.631  35.090  20.784  1.00  0.00     0.221 HD
ENDBRANCH  30  34
ENDBRANCH  25  30
ENDBRANCH   2  25
TORSDOF 11
ENDMDL
MODEL 5
REMARK VINA RESULT:    -7.744      4.664      7.304
REMARK INTER + INTRA:         -13.786
REMARK INTER:                 -11.082
REMARK INTRA:                  -2.704
REMARK UNBOUND:                -1.515
REMARK SMILES CC(C)C[C@@H](C(=O)N[C@@H](Cc1ccccn1)C(=O)Nc1ccc(Cl)c(Cl)c1)P(=O)(O)O
REMARK SMILES IDX 8 1 6 2 7 3 9 5 17 6 19 7 18 8 20 10 27 11 21 12 25 13 22 14
REMARK SMILES IDX 23 15 26 16 24 17 10 18 11 19 12 20 16 21 13 22 15 23 14 24
REMARK SMILES IDX 5 25 4 26 2 27 1 28 3 29 28 30 29 31 31 32 30 34
REMARK H PARENT 8 4 19 9 31 33 30 35
ROOT
ATOM      1  N   UNL     1      52.841  33.286  20.182  1.00  0.00    -0.343 N 
ATOM      2  C   UNL     1      51.706  32.456  19.833  1.00  0.00     0.235 C 
ATOM      3  O   UNL     1      51.567  31.403  20.361  1.00  0.00    -0.274 OA
ATOM      4  H   UNL     1      52.963  34.189  19.703  1.00  0.00     0.164 HD
ENDROOT
BRANCH   1   5
ATOM      5  C   UNL     1      53.812  32.886  21.184  1.00  0.00     0.177 C 
BRANCH   5   6
ATOM      6  C   UNL     1      53.641  33.839  22.362  1.00  0.00     0.247 C 
ATOM      7  N   UNL     1      52.941  35.091  22.128  1.00  0.00    -0.324 N 
ATOM      8  O   UNL     1      54.073  33.562  23.429  1.00  0.00    -0.272 OA
ATOM      9  H   UNL     1      52.572  35.278  21.185  1.00  0.00     0.170 HD
BRANCH   7  10
ATOM     10  C   UNL     1      52.738  36.089  23.161  1.00  0.00     0.042 A 
ATOM     11  C   UNL     1      53.720  37.057  23.304  1.00  0.00     0.048 A 
ATOM     12  C   UNL     1      51.622  36.094  23.989  1.00  0.00     0.028 A 
ATOM     13  C   UNL     1      53.591  38.042  24.270  1.00  0.00     0.061 A 
ATOM     14  C   UNL     1      51.496  37.086  24.955  1.00  0.00     0.024 A 
ATOM     15  C   UNL     1      52.481  38.057  25.101  1.00  0.00     0.059 A 
ATOM     16  Cl  UNL     1      54.867  39.279  24.436  1.00  0.00    -0.083 Cl
ATOM     17  Cl  UNL     1      52.317  39.323  26.355  1.00  0.00    -0.083 Cl
ENDBRANCH   7  10
ENDBRANCH   5   6
BRANCH   5  18
ATOM     18  C   UNL     1      55.193  33.049  20.579  1.00  0.00     0.091 C 
BRANCH  18  19
ATOM     19  C   UNL     1      55.520  31.882  19.642  1.00  0.00     0.043 A 
ATOM     20  C   UNL     1      55.005  30.616  19.903  1.00  0.00     0.024 A 
ATOM     21  N   UNL     1      56.295  32.087  18.590  1.00  0.00    -0.261 NA
ATOM     22  C   UNL     1      55.310  29.554  19.055  1.00  0.00     0.003 A 
ATOM     23  C   UNL     1      56.602  31.102  17.760  1.00  0.00     0.111 A 
ATOM     24  C   UNL     1      56.127  29.811  17.958  1.00  0.00     0.020 A 
ENDBRANCH  18  19
ENDBRANCH   5  18
ENDBRANCH   1   5
BRANCH   2  25
ATOM     25  C   UNL     1      50.704  32.951  18.791  1.00  0.00     0.193 C 
BRANCH  25  26
ATOM     26  C   UNL     1      51.010  32.428  17.401  1.00  0.00     0.029 C 
BRANCH  26  27
ATOM     27  C   UNL     1      52.370  31.762  17.292  1.00  0.00    -0.016 C 
ATOM     28  C   UNL     1      52.181  30.339  16.771  1.00  0.00     0.007 C 
ATOM     29  C   UNL     1      53.388  32.483  16.421  1.00  0.00     0.007 C 
ENDBRANCH  26  27
ENDBRANCH  25  26
BRANCH  25  30
ATOM     30  P   UNL     1      50.764  34.810  18.778  1.00  0.00     0.337 P 
ATOM     31  O   UNL     1      52.075  35.235  18.171  1.00  0.00    -0.260 OA
BRANCH  30  32
ATOM     32  O   UNL     1      49.652  35.391  17.951  1.00  0.00    -0.324 OA
ATOM     33  H   UNL     1      49.112  34.658  17.562  1.00  0.00     0.221 HD
ENDBRANCH  30  32
BRANCH  30  34
ATOM     34  O   UNL     1      50.690  35.341  20.185  1.00  0.00    -0.324 OA
ATOM     35  H   UNL     1      50.837  34.600  20.826  1.00  0.00     0.221 HD
ENDBRANCH  30  34
ENDBRANCH  25  30
ENDBRANCH   2  25
TORSDOF 11
ENDMDL
MODEL 6
REMARK VINA RESULT:    -7.735      2.919      5.575
REMARK INTER + INTRA:         -13.773
REMARK INTER:                 -11.355
REMARK INTRA:                  -2.417
REMARK UNBOUND:                -1.515
REMARK SMILES CC(C)C[C@@H](C(=O)N[C@@H](Cc1ccccn1)C(=O)Nc1ccc(Cl)c(Cl)c1)P(=O)(O)O
REMARK SMILES IDX 8 1 6 2 7 3 9 5 17 6 19 7 18 8 20 10 27 11 21 12 25 13 22 14
REMARK SMILES IDX 23 15 26 16 24 17 10 18 11 19 12 20 16 21 13 22 15 23 14 24
REMARK SMILES IDX 5 25 4 26 2 27 1 28 3 29 28 30 29 31 31 32 30 34
REMARK H PARENT 8 4 19 9 31 33 30 35
ROOT
ATOM      1  N   UNL     1      54.008  35.830  21.592  1.00  0.00    -0.343 N 
ATOM      2  C   UNL     1      55.249  35.207  22.007  1.00  0.00     0.235 C 
ATOM      3  O   UNL     1      55.218  34.212  22.650  1.00  0.00    -0.274 OA
ATOM      4  H   UNL     1      54.047  36.705  21.051  1.00  0.00     0.164 HD
ENDROOT
BRANCH   1   5
ATOM      5  C   UNL     1      52.712  35.260  21.914  1.00  0.00     0.177 C 
BRANCH   5   6
ATOM      6  C   UNL     1      51.927  35.194  20.609  1.00  0.00     0.247 C 
ATOM      7  N   UNL     1      51.422  33.899  20.184  1.00  0.00    -0.324 N 
ATOM      8  O   UNL     1      51.744  36.171  19.965  1.00  0.00    -0.272 OA
ATOM      9  H   UNL     1      51.597  33.083  20.787  1.00  0.00     0.170 HD
BRANCH   7  10
ATOM     10  C   UNL     1      50.685  33.703  18.950  1.00  0.00     0.042 A 
ATOM     11  C   UNL     1      49.335  33.407  19.063  1.00  0.00     0.048 A 
ATOM     12  C   UNL     1      51.280  33.795  17.699  1.00  0.00     0.028 A 
ATOM     13  C   UNL     1      48.569  33.208  17.926  1.00  0.00     0.061 A 
ATOM     14  C   UNL     1      50.507  33.597  16.561  1.00  0.00     0.024 A 
ATOM     15  C   UNL     1      49.153  33.299  16.671  1.00  0.00     0.059 A 
ATOM     16  Cl  UNL     1      46.833  32.828  18.095  1.00  0.00    -0.083 Cl
ATOM     17  Cl  UNL     1      48.167  33.033  15.202  1.00  0.00    -0.083 Cl
ENDBRANCH   7  10
ENDBRANCH   5   6
BRANCH   5  18
ATOM     18  C   UNL     1      52.026  36.198  22.888  1.00  0.00     0.091 C 
BRANCH  18  19
ATOM     19  C   UNL     1      53.053  36.966  23.725  1.00  0.00     0.043 A 
ATOM     20  C   UNL     1      53.500  36.439  24.932  1.00  0.00     0.024 A 
ATOM     21  N   UNL     1      53.508  38.130  23.292  1.00  0.00    -0.261 NA
ATOM     22  C   UNL     1      54.428  37.142  25.695  1.00  0.00     0.003 A 
ATOM     23  C   UNL     1      54.394  38.824  23.989  1.00  0.00     0.111 A 
ATOM     24  C   UNL     1      54.884  38.362  25.205  1.00  0.00     0.020 A 
ENDBRANCH  18  19
ENDBRANCH   5  18
ENDBRANCH   1   5
BRANCH   2  25
ATOM     25  C   UNL     1      56.580  35.844  21.607  1.00  0.00     0.193 C 
BRANCH  25  26
ATOM     26  C   UNL     1      57.220  36.608  22.749  1.00  0.00     0.029 C 
BRANCH  26  27
ATOM     27  C   UNL     1      58.251  35.798  23.515  1.00  0.00    -0.016 C 
ATOM     28  C   UNL     1      57.691  35.470  24.897  1.00  0.00     0.007 C 
ATOM     29  C   UNL     1      58.711  34.513  22.843  1.00  0.00     0.007 C 
ENDBRANCH  26  27
ENDBRANCH  25  26
BRANCH  25  30
ATOM     30  P   UNL     1      56.255  37.005  20.191  1.00  0.00     0.337 P 
ATOM     31  O   UNL     1      55.489  36.256  19.134  1.00  0.00    -0.260 OA
BRANCH  30  32
ATOM     32  O   UNL     1      55.430  38.184  20.624  1.00  0.00    -0.324 OA
ATOM     33  H   UNL     1      55.250  38.122  21.596  1.00  0.00     0.221 HD
ENDBRANCH  30  32
BRANCH  30  34
ATOM     34  O   UNL     1      57.557  37.477  19.599  1.00  0.00    -0.324 OA
ATOM     35  H   UNL     1      57.375  38.147  18.894  1.00  0.00     0.221 HD
ENDBRANCH  30  34
ENDBRANCH  25  30
ENDBRANCH   2  25
TORSDOF 11
ENDMDL
MODEL 7
REMARK VINA RESULT:    -7.716      4.893      9.117
REMARK INTER + INTRA:         -13.743
REMARK INTER:                 -11.936
REMARK INTRA:                  -1.807
REMARK UNBOUND:                -1.515
REMARK SMILES CC(C)C[C@@H](C(=O)N[C@@H](Cc1ccccn1)C(=O)Nc1ccc(Cl)c(Cl)c1)P(=O)(O)O
REMARK SMILES IDX 8 1 6 2 7 3 9 5 17 6 19 7 18 8 20 10 27 11 21 12 25 13 22 14
REMARK SMILES IDX 23 15 26 16 24 17 10 18 11 19 12 20 16 21 13 22 15 23 14 24
REMARK SMILES IDX 5 25 4 26 2 27 1 28 3 29 28 30 29 31 31 32 30 34
REMARK H PARENT 8 4 19 9 31 33 30 35
ROOT
ATOM      1  N   UNL     1      52.016  34.937  21.383  1.00  0.00    -0.343 N 
ATOM      2  C   UNL     1      51.699  34.982  19.970  1.00  0.00     0.235 C 
ATOM      3  O   UNL     1      51.391  36.013  19.472  1.00  0.00    -0.274 OA
ATOM      4  H   UNL     1      52.263  34.033  21.809  1.00  0.00     0.164 HD
ENDROOT
BRANCH   1   5
ATOM      5  C   UNL     1      51.999  36.125  22.217  1.00  0.00     0.177 C 
BRANCH   5   6
ATOM      6  C   UNL     1      53.174  36.988  21.772  1.00  0.00     0.247 C 
ATOM      7  N   UNL     1      54.489  36.372  21.719  1.00  0.00    -0.324 N 
ATOM      8  O   UNL     1      53.013  38.126  21.485  1.00  0.00    -0.272 OA
ATOM      9  H   UNL     1      54.574  35.376  21.965  1.00  0.00     0.170 HD
BRANCH   7  10
ATOM     10  C   UNL     1      55.688  37.095  21.337  1.00  0.00     0.042 A 
ATOM     11  C   UNL     1      55.989  37.147  19.984  1.00  0.00     0.048 A 
ATOM     12  C   UNL     1      56.519  37.711  22.264  1.00  0.00     0.028 A 
ATOM     13  C   UNL     1      57.117  37.821  19.547  1.00  0.00     0.061 A 
ATOM     14  C   UNL     1      57.649  38.388  21.821  1.00  0.00     0.024 A 
ATOM     15  C   UNL     1      57.953  38.441  20.465  1.00  0.00     0.059 A 
ATOM     16  Cl  UNL     1      57.484  37.876  17.802  1.00  0.00    -0.083 Cl
ATOM     17  Cl  UNL     1      59.416  39.304  19.903  1.00  0.00    -0.083 Cl
ENDBRANCH   7  10
ENDBRANCH   5   6
BRANCH   5  18
ATOM     18  C   UNL     1      52.193  35.682  23.654  1.00  0.00     0.091 C 
BRANCH  18  19
ATOM     19  C   UNL     1      52.711  36.837  24.517  1.00  0.00     0.043 A 
ATOM     20  C   UNL     1      51.839  37.835  24.939  1.00  0.00     0.024 A 
ATOM     21  N   UNL     1      53.989  36.877  24.853  1.00  0.00    -0.261 NA
ATOM     22  C   UNL     1      52.313  38.888  25.716  1.00  0.00     0.003 A 
ATOM     23  C   UNL     1      54.474  37.860  25.595  1.00  0.00     0.111 A 
ATOM     24  C   UNL     1      53.664  38.894  26.051  1.00  0.00     0.020 A 
ENDBRANCH  18  19
ENDBRANCH   5  18
ENDBRANCH   1   5
BRANCH   2  25
ATOM     25  C   UNL     1      51.766  33.699  19.143  1.00  0.00     0.193 C 
BRANCH  25  26
ATOM     26  C   UNL     1      50.403  33.064  18.950  1.00  0.00     0.029 C 
BRANCH  26  27
ATOM     27  C   UNL     1      49.959  33.016  17.498  1.00  0.00    -0.016 C 
ATOM     28  C   UNL     1      48.854  34.049  17.288  1.00  0.00     0.007 C 
ATOM     29  C   UNL     1      51.055  33.238  16.467  1.00  0.00     0.007 C 
ENDBRANCH  26  27
ENDBRANCH  25  26
BRANCH  25  30
ATOM     30  P   UNL     1      52.883  32.505  20.030  1.00  0.00     0.337 P 
ATOM     31  O   UNL     1      54.091  33.262  20.515  1.00  0.00    -0.260 OA
BRANCH  30  32
ATOM     32  O   UNL     1      52.200  31.894  21.222  1.00  0.00    -0.324 OA
ATOM     33  H   UNL     1      51.535  32.531  21.584  1.00  0.00     0.221 HD
ENDBRANCH  30  32
BRANCH  30  34
ATOM     34  O   UNL     1      53.339  31.423  19.087  1.00  0.00    -0.324 OA
ATOM     35  H   UNL     1      54.238  31.109  19.355  1.00  0.00     0.221 HD
ENDBRANCH  30  34
ENDBRANCH  25  30
ENDBRANCH   2  25
TORSDOF 11
ENDMDL
MODEL 8
REMARK VINA RESULT:    -7.639      5.076      8.667
REMARK INTER + INTRA:         -13.621
REMARK INTER:                 -10.879
REMARK INTRA:                  -2.742
REMARK UNBOUND:                -1.515
REMARK SMILES CC(C)C[C@@H](C(=O)N[C@@H](Cc1ccccn1)C(=O)Nc1ccc(Cl)c(Cl)c1)P(=O)(O)O
REMARK SMILES IDX 8 1 6 2 7 3 9 5 17 6 19 7 18 8 20 10 27 11 21 12 25 13 22 14
REMARK SMILES IDX 23 15 26 16 24 17 10 18 11 19 12 20 16 21 13 22 15 23 14 24
REMARK SMILES IDX 5 25 4 26 2 27 1 28 3 29 28 30 29 31 31 32 30 34
REMARK H PARENT 8 4 19 9 31 33 30 35
ROOT
ATOM      1  N   UNL     1      52.009  35.146  21.229  1.00  0.00    -0.343 N 
ATOM      2  C   UNL     1      51.607  34.972  19.848  1.00  0.00     0.235 C 
ATOM      3  O   UNL     1      51.276  35.916  19.212  1.00  0.00    -0.274 OA
ATOM      4  H   UNL     1      52.275  34.317  21.778  1.00  0.00     0.164 HD
ENDROOT
BRANCH   1   5
ATOM      5  C   UNL     1      52.050  36.451  21.864  1.00  0.00     0.177 C 
BRANCH   5   6
ATOM      6  C   UNL     1      53.438  37.022  21.600  1.00  0.00     0.247 C 
ATOM      7  N   UNL     1      54.474  36.109  21.148  1.00  0.00    -0.324 N 
ATOM      8  O   UNL     1      53.658  38.174  21.764  1.00  0.00    -0.272 OA
ATOM      9  H   UNL     1      54.228  35.119  21.006  1.00  0.00     0.170 HD
BRANCH   7  10
ATOM     10  C   UNL     1      55.839  36.527  20.887  1.00  0.00     0.042 A 
ATOM     11  C   UNL     1      56.754  36.370  21.917  1.00  0.00     0.048 A 
ATOM     12  C   UNL     1      56.237  37.069  19.672  1.00  0.00     0.028 A 
ATOM     13  C   UNL     1      58.075  36.747  21.738  1.00  0.00     0.061 A 
ATOM     14  C   UNL     1      57.565  37.444  19.496  1.00  0.00     0.024 A 
ATOM     15  C   UNL     1      58.484  37.289  20.528  1.00  0.00     0.059 A 
ATOM     16  Cl  UNL     1      59.235  36.536  23.078  1.00  0.00    -0.083 Cl
ATOM     17  Cl  UNL     1      60.188  37.784  20.299  1.00  0.00    -0.083 Cl
ENDBRANCH   7  10
ENDBRANCH   5   6
BRANCH   5  18
ATOM     18  C   UNL     1      51.846  36.246  23.353  1.00  0.00     0.091 C 
BRANCH  18  19
ATOM     19  C   UNL     1      53.056  35.548  23.980  1.00  0.00     0.043 A 
ATOM     20  C   UNL     1      53.848  36.224  24.902  1.00  0.00     0.024 A 
ATOM     21  N   UNL     1      53.340  34.303  23.636  1.00  0.00    -0.261 NA
ATOM     22  C   UNL     1      54.952  35.590  25.465  1.00  0.00     0.003 A 
ATOM     23  C   UNL     1      54.380  33.667  24.155  1.00  0.00     0.111 A 
ATOM     24  C   UNL     1      55.218  34.279  25.080  1.00  0.00     0.020 A 
ENDBRANCH  18  19
ENDBRANCH   5  18
ENDBRANCH   1   5
BRANCH   2  25
ATOM     25  C   UNL     1      51.615  33.573  19.233  1.00  0.00     0.193 C 
BRANCH  25  26
ATOM     26  C   UNL     1      50.268  32.887  19.339  1.00  0.00     0.029 C 
BRANCH  26  27
ATOM     27  C   UNL     1      49.575  32.706  17.999  1.00  0.00    -0.016 C 
ATOM     28  C   UNL     1      48.471  31.663  18.153  1.00  0.00     0.007 C 
ATOM     29  C   UNL     1      48.989  33.969  17.386  1.00  0.00     0.007 C 
ENDBRANCH  26  27
ENDBRANCH  25  26
BRANCH  25  30
ATOM     30  P   UNL     1      52.895  32.563  20.128  1.00  0.00     0.337 P 
ATOM     31  O   UNL     1      54.168  33.365  20.192  1.00  0.00    -0.260 OA
BRANCH  30  32
ATOM     32  O   UNL     1      52.465  32.251  21.534  1.00  0.00    -0.324 OA
ATOM     33  H   UNL     1      53.104  31.614  21.942  1.00  0.00     0.221 HD
ENDBRANCH  30  32
BRANCH  30  34
ATOM     34  O   UNL     1      53.166  31.287  19.377  1.00  0.00    -0.324 OA
ATOM     35  H   UNL     1      52.823  30.518  19.897  1.00  0.00     0.221 HD
ENDBRANCH  30  34
ENDBRANCH  25  30
ENDBRANCH   2  25
TORSDOF 11
ENDMDL
MODEL 9
REMARK VINA RESULT:    -7.622      3.108      6.148
REMARK INTER + INTRA:         -13.594
REMARK INTER:                 -11.245
REMARK INTRA:                  -2.349
REMARK UNBOUND:                -1.515
REMARK SMILES CC(C)C[C@@H](C(=O)N[C@@H](Cc1ccccn1)C(=O)Nc1ccc(Cl)c(Cl)c1)P(=O)(O)O
REMARK SMILES IDX 8 1 6 2 7 3 9 5 17 6 19 7 18 8 20 10 27 11 21 12 25 13 22 14
REMARK SMILES IDX 23 15 26 16 24 17 10 18 11 19 12 20 16 21 13 22 15 23 14 24
REMARK SMILES IDX 5 25 4 26 2 27 1 28 3 29 28 30 29 31 31 32 30 34
REMARK H PARENT 8 4 19 9 31 33 30 35
ROOT
ATOM      1  N   UNL     1      53.973  35.872  22.226  1.00  0.00    -0.343 N 
ATOM      2  C   UNL     1      54.635  34.619  22.526  1.00  0.00     0.235 C 
ATOM      3  O   UNL     1      53.989  33.680  22.854  1.00  0.00    -0.274 OA
ATOM      4  H   UNL     1      54.545  36.687  21.962  1.00  0.00     0.164 HD
ENDROOT
BRANCH   1   5
ATOM      5  C   UNL     1      52.530  36.018  22.286  1.00  0.00     0.177 C 
BRANCH   5   6
ATOM      6  C   UNL     1      52.002  35.723  20.887  1.00  0.00     0.247 C 
ATOM      7  N   UNL     1      51.648  34.350  20.569  1.00  0.00    -0.324 N 
ATOM      8  O   UNL     1      51.893  36.590  20.088  1.00  0.00    -0.272 OA
ATOM      9  H   UNL     1      51.748  33.635  21.304  1.00  0.00     0.170 HD
BRANCH   7  10
ATOM     10  C   UNL     1      51.160  33.939  19.266  1.00  0.00     0.042 A 
ATOM     11  C   UNL     1      49.792  33.758  19.133  1.00  0.00     0.048 A 
ATOM     12  C   UNL     1      52.004  33.724  18.184  1.00  0.00     0.028 A 
ATOM     13  C   UNL     1      49.256  33.367  17.916  1.00  0.00     0.061 A 
ATOM     14  C   UNL     1      51.462  33.334  16.965  1.00  0.00     0.024 A 
ATOM     15  C   UNL     1      50.090  33.150  16.830  1.00  0.00     0.059 A 
ATOM     16  Cl  UNL     1      47.492  33.140  17.768  1.00  0.00    -0.083 Cl
ATOM     17  Cl  UNL     1      49.401  32.636  15.260  1.00  0.00    -0.083 Cl
ENDBRANCH   7  10
ENDBRANCH   5   6
BRANCH   5  18
ATOM     18  C   UNL     1      52.226  37.454  22.665  1.00  0.00     0.091 C 
BRANCH  18  19
ATOM     19  C   UNL     1      53.265  37.990  23.655  1.00  0.00     0.043 A 
ATOM     20  C   UNL     1      53.051  37.862  25.024  1.00  0.00     0.024 A 
ATOM     21  N   UNL     1      54.360  38.574  23.200  1.00  0.00    -0.261 NA
ATOM     22  C   UNL     1      53.992  38.356  25.923  1.00  0.00     0.003 A 
ATOM     23  C   UNL     1      55.279  39.051  24.025  1.00  0.00     0.111 A 
ATOM     24  C   UNL     1      55.133  38.963  25.404  1.00  0.00     0.020 A 
ENDBRANCH  18  19
ENDBRANCH   5  18
ENDBRANCH   1   5
BRANCH   2  25
ATOM     25  C   UNL     1      56.156  34.526  22.414  1.00  0.00     0.193 C 
BRANCH  25  26
ATOM     26  C   UNL     1      56.848  35.795  22.872  1.00  0.00     0.029 C 
BRANCH  26  27
ATOM     27  C   UNL     1      57.798  35.578  24.036  1.00  0.00    -0.016 C 
ATOM     28  C   UNL     1      57.040  35.817  25.341  1.00  0.00     0.007 C 
ATOM     29  C   UNL     1      58.472  34.216  24.091  1.00  0.00     0.007 C 
ENDBRANCH  26  27
ENDBRANCH  25  26
BRANCH  25  30
ATOM     30  P   UNL     1      56.579  34.200  20.633  1.00  0.00     0.337 P 
ATOM     31  O   UNL     1      55.337  34.410  19.807  1.00  0.00    -0.260 OA
BRANCH  30  32
ATOM     32  O   UNL     1      57.638  35.145  20.137  1.00  0.00    -0.324 OA
ATOM     33  H   UNL     1      57.309  35.618  19.332  1.00  0.00     0.221 HD
ENDBRANCH  30  32
BRANCH  30  34
ATOM     34  O   UNL     1      57.037  32.776  20.461  1.00  0.00    -0.324 OA
ATOM     35  H   UNL     1      56.936  32.509  19.513  1.00  0.00     0.221 HD
ENDBRANCH  30  34
ENDBRANCH  25  30
ENDBRANCH   2  25
TORSDOF 11
ENDMDL
MODEL 10
REMARK VINA RESULT:    -7.584      4.731      8.545
REMARK INTER + INTRA:         -13.533
REMARK INTER:                 -10.899
REMARK INTRA:                  -2.634
REMARK UNBOUND:                -1.515
REMARK SMILES CC(C)C[C@@H](C(=O)N[C@@H](Cc1ccccn1)C(=O)Nc1ccc(Cl)c(Cl)c1)P(=O)(O)O
REMARK SMILES IDX 8 1 6 2 7 3 9 5 17 6 19 7 18 8 20 10 27 11 21 12 25 13 22 14
REMARK SMILES IDX 23 15 26 16 24 17 10 18 11 19 12 20 16 21 13 22 15 23 14 24
REMARK SMILES IDX 5 25 4 26 2 27 1 28 3 29 28 30 29 31 31 32 30 34
REMARK H PARENT 8 4 19 9 31 33 30 35
ROOT
ATOM      1  N   UNL     1      51.965  35.163  21.278  1.00  0.00    -0.343 N 
ATOM      2  C   UNL     1      51.577  34.993  19.893  1.00  0.00     0.235 C 
ATOM      3  O   UNL     1      51.235  35.936  19.261  1.00  0.00    -0.274 OA
ATOM      4  H   UNL     1      52.241  34.334  21.824  1.00  0.00     0.164 HD
ENDROOT
BRANCH   1   5
ATOM      5  C   UNL     1      51.979  36.464  21.923  1.00  0.00     0.177 C 
BRANCH   5   6
ATOM      6  C   UNL     1      53.348  37.075  21.644  1.00  0.00     0.247 C 
ATOM      7  N   UNL     1      54.419  36.184  21.231  1.00  0.00    -0.324 N 
ATOM      8  O   UNL     1      53.526  38.239  21.768  1.00  0.00    -0.272 OA
ATOM      9  H   UNL     1      54.209  35.181  21.125  1.00  0.00     0.170 HD
BRANCH   7  10
ATOM     10  C   UNL     1      55.769  36.641  20.963  1.00  0.00     0.042 A 
ATOM     11  C   UNL     1      56.054  37.040  19.666  1.00  0.00     0.048 A 
ATOM     12  C   UNL     1      56.756  36.679  21.940  1.00  0.00     0.028 A 
ATOM     13  C   UNL     1      57.323  37.489  19.338  1.00  0.00     0.061 A 
ATOM     14  C   UNL     1      58.027  37.133  21.607  1.00  0.00     0.024 A 
ATOM     15  C   UNL     1      58.314  37.533  20.307  1.00  0.00     0.059 A 
ATOM     16  Cl  UNL     1      57.666  37.999  17.662  1.00  0.00    -0.083 Cl
ATOM     17  Cl  UNL     1      59.957  38.103  19.882  1.00  0.00    -0.083 Cl
ENDBRANCH   7  10
ENDBRANCH   5   6
BRANCH   5  18
ATOM     18  C   UNL     1      51.801  36.243  23.412  1.00  0.00     0.091 C 
BRANCH  18  19
ATOM     19  C   UNL     1      53.035  35.566  24.016  1.00  0.00     0.043 A 
ATOM     20  C   UNL     1      53.846  36.265  24.904  1.00  0.00     0.024 A 
ATOM     21  N   UNL     1      53.321  34.318  23.686  1.00  0.00    -0.261 NA
ATOM     22  C   UNL     1      54.972  35.651  25.446  1.00  0.00     0.003 A 
ATOM     23  C   UNL     1      54.381  33.700  24.186  1.00  0.00     0.111 A 
ATOM     24  C   UNL     1      55.239  34.336  25.075  1.00  0.00     0.020 A 
ENDBRANCH  18  19
ENDBRANCH   5  18
ENDBRANCH   1   5
BRANCH   2  25
ATOM     25  C   UNL     1      51.614  33.599  19.268  1.00  0.00     0.193 C 
BRANCH  25  26
ATOM     26  C   UNL     1      50.260  32.917  19.294  1.00  0.00     0.029 C 
BRANCH  26  27
ATOM     27  C   UNL     1      49.272  33.497  18.297  1.00  0.00    -0.016 C 
ATOM     28  C   UNL     1      49.901  33.462  16.905  1.00  0.00     0.007 C 
ATOM     29  C   UNL     1      47.911  32.821  18.248  1.00  0.00     0.007 C 
ENDBRANCH  26  27
ENDBRANCH  25  26
BRANCH  25  30
ATOM     30  P   UNL     1      52.838  32.576  20.223  1.00  0.00     0.337 P 
ATOM     31  O   UNL     1      54.126  33.350  20.319  1.00  0.00    -0.260 OA
BRANCH  30  32
ATOM     32  O   UNL     1      52.353  32.297  21.618  1.00  0.00    -0.324 OA
ATOM     33  H   UNL     1      53.118  32.035  22.189  1.00  0.00     0.221 HD
ENDBRANCH  30  32
BRANCH  30  34
ATOM     34  O   UNL     1      53.107  31.281  19.503  1.00  0.00    -0.324 OA
ATOM     35  H   UNL     1      53.391  30.593  20.156  1.00  0.00     0.221 HD
ENDBRANCH  30  34
ENDBRANCH  25  30
ENDBRANCH   2  25
TORSDOF 11
ENDMDL
MODEL 11
REMARK VINA RESULT:    -7.561      7.065     10.040
REMARK INTER + INTRA:         -13.497
REMARK INTER:                 -10.782
REMARK INTRA:                  -2.715
REMARK UNBOUND:                -1.515
REMARK SMILES CC(C)C[C@@H](C(=O)N[C@@H](Cc1ccccn1)C(=O)Nc1ccc(Cl)c(Cl)c1)P(=O)(O)O
REMARK SMILES IDX 8 1 6 2 7 3 9 5 17 6 19 7 18 8 20 10 27 11 21 12 25 13 22 14
REMARK SMILES IDX 23 15 26 16 24 17 10 18 11 19 12 20 16 21 13 22 15 23 14 24
REMARK SMILES IDX 5 25 4 26 2 27 1 28 3 29 28 30 29 31 31 32 30 34
REMARK H PARENT 8 4 19 9 31 33 30 35
ROOT
ATOM      1  N   UNL     1      56.020  37.162  22.210  1.00  0.00    -0.343 N 
ATOM      2  C   UNL     1      56.176  36.470  23.473  1.00  0.00     0.235 C 
ATOM      3  O   UNL     1      56.857  35.501  23.530  1.00  0.00    -0.274 OA
ATOM      4  H   UNL     1      55.410  37.990  22.167  1.00  0.00     0.164 HD
ENDROOT
BRANCH   1   5
ATOM      5  C   UNL     1      56.695  36.725  21.001  1.00  0.00     0.177 C 
BRANCH   5   6
ATOM      6  C   UNL     1      57.791  37.748  20.719  1.00  0.00     0.247 C 
ATOM      7  N   UNL     1      57.929  38.866  21.637  1.00  0.00    -0.324 N 
ATOM      8  O   UNL     1      58.499  37.630  19.778  1.00  0.00    -0.272 OA
ATOM      9  H   UNL     1      57.298  38.915  22.450  1.00  0.00     0.170 HD
BRANCH   7  10
ATOM     10  C   UNL     1      58.914  39.916  21.463  1.00  0.00     0.042 A 
ATOM     11  C   UNL     1      60.215  39.632  21.850  1.00  0.00     0.048 A 
ATOM     12  C   UNL     1      58.596  41.163  20.940  1.00  0.00     0.028 A 
ATOM     13  C   UNL     1      61.208  40.588  21.711  1.00  0.00     0.061 A 
ATOM     14  C   UNL     1      59.596  42.119  20.800  1.00  0.00     0.024 A 
ATOM     15  C   UNL     1      60.900  41.836  21.189  1.00  0.00     0.059 A 
ATOM     16  Cl  UNL     1      62.875  40.199  22.215  1.00  0.00    -0.083 Cl
ATOM     17  Cl  UNL     1      62.180  43.075  21.017  1.00  0.00    -0.083 Cl
ENDBRANCH   7  10
ENDBRANCH   5   6
BRANCH   5  18
ATOM     18  C   UNL     1      55.678  36.728  19.877  1.00  0.00     0.091 C 
BRANCH  18  19
ATOM     19  C   UNL     1      54.440  35.912  20.258  1.00  0.00     0.043 A 
ATOM     20  C   UNL     1      54.525  34.527  20.362  1.00  0.00     0.024 A 
ATOM     21  N   UNL     1      53.294  36.532  20.483  1.00  0.00    -0.261 NA
ATOM     22  C   UNL     1      53.397  33.785  20.700  1.00  0.00     0.003 A 
ATOM     23  C   UNL     1      52.202  35.859  20.812  1.00  0.00     0.111 A 
ATOM     24  C   UNL     1      52.210  34.474  20.932  1.00  0.00     0.020 A 
ENDBRANCH  18  19
ENDBRANCH   5  18
ENDBRANCH   1   5
BRANCH   2  25
ATOM     25  C   UNL     1      55.459  37.001  24.714  1.00  0.00     0.193 C 
BRANCH  25  26
ATOM     26  C   UNL     1      54.533  35.972  25.331  1.00  0.00     0.029 C 
BRANCH  26  27
ATOM     27  C   UNL     1      53.629  35.289  24.320  1.00  0.00    -0.016 C 
ATOM     28  C   UNL     1      53.935  33.793  24.318  1.00  0.00     0.007 C 
ATOM     29  C   UNL     1      52.136  35.494  24.527  1.00  0.00     0.007 C 
ENDBRANCH  26  27
ENDBRANCH  25  26
BRANCH  25  30
ATOM     30  P   UNL     1      54.474  38.495  24.210  1.00  0.00     0.337 P 
ATOM     31  O   UNL     1      55.436  39.569  23.776  1.00  0.00    -0.260 OA
BRANCH  30  32
ATOM     32  O   UNL     1      53.560  38.188  23.056  1.00  0.00    -0.324 OA
ATOM     33  H   UNL     1      53.280  37.240  23.100  1.00  0.00     0.221 HD
ENDBRANCH  30  32
BRANCH  30  34
ATOM     34  O   UNL     1      53.674  39.008  25.378  1.00  0.00    -0.324 OA
ATOM     35  H   UNL     1      52.923  38.389  25.561  1.00  0.00     0.221 HD
ENDBRANCH  30  34
ENDBRANCH  25  30
ENDBRANCH   2  25
TORSDOF 11
ENDMDL
MODEL 12
REMARK VINA RESULT:    -7.515      5.105      9.003
REMARK INTER + INTRA:         -13.424
REMARK INTER:                 -11.842
REMARK INTRA:                  -1.582
REMARK UNBOUND:                -1.515
REMARK SMILES CC(C)C[C@@H](C(=O)N[C@@H](Cc1ccccn1)C(=O)Nc1ccc(Cl)c(Cl)c1)P(=O)(O)O
REMARK SMILES IDX 8 1 6 2 7 3 9 5 17 6 19 7 18 8 20 10 27 11 21 12 25 13 22 14
REMARK SMILES IDX 23 15 26 16 24 17 10 18 11 19 12 20 16 21 13 22 15 23 14 24
REMARK SMILES IDX 5 25 4 26 2 27 1 28 3 29 28 30 29 31 31 32 30 34
REMARK H PARENT 8 4 19 9 31 33 30 35
ROOT
ATOM      1  N   UNL     1      52.077  35.084  21.421  1.00  0.00    -0.343 N 
ATOM      2  C   UNL     1      51.691  35.153  20.026  1.00  0.00     0.235 C 
ATOM      3  O   UNL     1      51.384  36.197  19.555  1.00  0.00    -0.274 OA
ATOM      4  H   UNL     1      52.321  34.169  21.825  1.00  0.00     0.164 HD
ENDROOT
BRANCH   1   5
ATOM      5  C   UNL     1      52.130  36.262  22.267  1.00  0.00     0.177 C 
BRANCH   5   6
ATOM      6  C   UNL     1      53.290  37.112  21.761  1.00  0.00     0.247 C 
ATOM      7  N   UNL     1      54.602  36.492  21.682  1.00  0.00    -0.324 N 
ATOM      8  O   UNL     1      53.120  38.241  21.449  1.00  0.00    -0.272 OA
ATOM      9  H   UNL     1      54.695  35.503  21.951  1.00  0.00     0.170 HD
BRANCH   7  10
ATOM     10  C   UNL     1      55.788  37.203  21.242  1.00  0.00     0.042 A 
ATOM     11  C   UNL     1      56.066  37.186  19.883  1.00  0.00     0.048 A 
ATOM     12  C   UNL     1      56.629  37.873  22.121  1.00  0.00     0.028 A 
ATOM     13  C   UNL     1      57.181  37.845  19.392  1.00  0.00     0.061 A 
ATOM     14  C   UNL     1      57.746  38.535  21.623  1.00  0.00     0.024 A 
ATOM     15  C   UNL     1      58.027  38.518  20.261  1.00  0.00     0.059 A 
ATOM     16  Cl  UNL     1      57.518  37.810  17.640  1.00  0.00    -0.083 Cl
ATOM     17  Cl  UNL     1      59.473  39.361  19.629  1.00  0.00    -0.083 Cl
ENDBRANCH   7  10
ENDBRANCH   5   6
BRANCH   5  18
ATOM     18  C   UNL     1      52.402  35.800  23.685  1.00  0.00     0.091 C 
BRANCH  18  19
ATOM     19  C   UNL     1      52.766  36.984  24.586  1.00  0.00     0.043 A 
ATOM     20  C   UNL     1      54.065  37.119  25.066  1.00  0.00     0.024 A 
ATOM     21  N   UNL     1      51.838  37.870  24.904  1.00  0.00    -0.261 NA
ATOM     22  C   UNL     1      54.392  38.191  25.891  1.00  0.00     0.003 A 
ATOM     23  C   UNL     1      52.114  38.905  25.683  1.00  0.00     0.111 A 
ATOM     24  C   UNL     1      53.388  39.104  26.201  1.00  0.00     0.020 A 
ENDBRANCH  18  19
ENDBRANCH   5  18
ENDBRANCH   1   5
BRANCH   2  25
ATOM     25  C   UNL     1      51.685  33.879  19.183  1.00  0.00     0.193 C 
BRANCH  25  26
ATOM     26  C   UNL     1      52.732  33.905  18.087  1.00  0.00     0.029 C 
BRANCH  26  27
ATOM     27  C   UNL     1      54.141  34.138  18.603  1.00  0.00    -0.016 C 
ATOM     28  C   UNL     1      54.550  32.950  19.470  1.00  0.00     0.007 C 
ATOM     29  C   UNL     1      55.202  34.369  17.538  1.00  0.00     0.007 C 
ENDBRANCH  26  27
ENDBRANCH  25  26
BRANCH  25  30
ATOM     30  P   UNL     1      49.997  33.705  18.422  1.00  0.00     0.337 P 
ATOM     31  O   UNL     1      50.075  32.666  17.335  1.00  0.00    -0.260 OA
BRANCH  30  32
ATOM     32  O   UNL     1      48.981  33.253  19.433  1.00  0.00    -0.324 OA
ATOM     33  H   UNL     1      48.496  34.039  19.789  1.00  0.00     0.221 HD
ENDBRANCH  30  32
BRANCH  30  34
ATOM     34  O   UNL     1      49.567  35.012  17.809  1.00  0.00    -0.324 OA
ATOM     35  H   UNL     1      48.696  34.893  17.354  1.00  0.00     0.221 HD
ENDBRANCH  30  34
ENDBRANCH  25  30
ENDBRANCH   2  25
TORSDOF 11
ENDMDL
MODEL 13
REMARK VINA RESULT:    -7.336      3.843      6.545
REMARK INTER + INTRA:         -13.140
REMARK INTER:                 -11.635
REMARK INTRA:                  -1.505
REMARK UNBOUND:                -1.515
REMARK SMILES CC(C)C[C@@H](C(=O)N[C@@H](Cc1ccccn1)C(=O)Nc1ccc(Cl)c(Cl)c1)P(=O)(O)O
REMARK SMILES IDX 8 1 6 2 7 3 9 5 17 6 19 7 18 8 20 10 27 11 21 12 25 13 22 14
REMARK SMILES IDX 23 15 26 16 24 17 10 18 11 19 12 20 16 21 13 22 15 23 14 24
REMARK SMILES IDX 5 25 4 26 2 27 1 28 3 29 28 30 29 31 31 32 30 34
REMARK H PARENT 8 4 19 9 31 33 30 35
ROOT
ATOM      1  N   UNL     1      54.924  36.914  22.463  1.00  0.00    -0.343 N 
ATOM      2  C   UNL     1      55.179  38.126  23.214  1.00  0.00     0.235 C 
ATOM      3  O   UNL     1      55.965  38.914  22.804  1.00  0.00    -0.274 OA
ATOM      4  H   UNL     1      54.255  36.228  22.839  1.00  0.00     0.164 HD
ENDROOT
BRANCH   1   5
ATOM      5  C   UNL     1      55.580  36.635  21.199  1.00  0.00     0.177 C 
BRANCH   5   6
ATOM      6  C   UNL     1      54.572  35.877  20.341  1.00  0.00     0.247 C 
ATOM      7  N   UNL     1      53.310  35.497  20.953  1.00  0.00    -0.324 N 
ATOM      8  O   UNL     1      54.820  35.607  19.216  1.00  0.00    -0.272 OA
ATOM      9  H   UNL     1      53.137  35.769  21.931  1.00  0.00     0.170 HD
BRANCH   7  10
ATOM     10  C   UNL     1      52.282  34.752  20.249  1.00  0.00     0.042 A 
ATOM     11  C   UNL     1      52.267  33.377  20.427  1.00  0.00     0.048 A 
ATOM     12  C   UNL     1      51.348  35.363  19.423  1.00  0.00     0.028 A 
ATOM     13  C   UNL     1      51.313  32.603  19.787  1.00  0.00     0.061 A 
ATOM     14  C   UNL     1      50.391  34.582  18.784  1.00  0.00     0.024 A 
ATOM     15  C   UNL     1      50.375  33.203  18.960  1.00  0.00     0.059 A 
ATOM     16  Cl  UNL     1      51.312  30.835  20.031  1.00  0.00    -0.083 Cl
ATOM     17  Cl  UNL     1      49.148  32.203  18.125  1.00  0.00    -0.083 Cl
ENDBRANCH   7  10
ENDBRANCH   5   6
BRANCH   5  18
ATOM     18  C   UNL     1      56.783  35.759  21.486  1.00  0.00     0.091 C 
BRANCH  18  19
ATOM     19  C   UNL     1      58.057  36.600  21.603  1.00  0.00     0.043 A 
ATOM     20  C   UNL     1      58.957  36.359  22.637  1.00  0.00     0.024 A 
ATOM     21  N   UNL     1      58.292  37.554  20.719  1.00  0.00    -0.261 NA
ATOM     22  C   UNL     1      60.111  37.130  22.747  1.00  0.00     0.003 A 
ATOM     23  C   UNL     1      59.382  38.304  20.789  1.00  0.00     0.111 A 
ATOM     24  C   UNL     1      60.323  38.123  21.795  1.00  0.00     0.020 A 
ENDBRANCH  18  19
ENDBRANCH   5  18
ENDBRANCH   1   5
BRANCH   2  25
ATOM     25  C   UNL     1      54.432  38.371  24.524  1.00  0.00     0.193 C 
BRANCH  25  26
ATOM     26  C   UNL     1      54.798  37.363  25.596  1.00  0.00     0.029 C 
BRANCH  26  27
ATOM     27  C   UNL     1      55.385  36.078  25.041  1.00  0.00    -0.016 C 
ATOM     28  C   UNL     1      56.841  35.969  25.488  1.00  0.00     0.007 C 
ATOM     29  C   UNL     1      54.649  34.801  25.418  1.00  0.00     0.007 C 
ENDBRANCH  26  27
ENDBRANCH  25  26
BRANCH  25  30
ATOM     30  P   UNL     1      52.609  38.262  24.170  1.00  0.00     0.337 P 
ATOM     31  O   UNL     1      52.044  37.110  24.958  1.00  0.00    -0.260 OA
BRANCH  30  32
ATOM     32  O   UNL     1      51.892  39.515  24.589  1.00  0.00    -0.324 OA
ATOM     33  H   UNL     1      52.371  39.932  25.348  1.00  0.00     0.221 HD
ENDBRANCH  30  32
BRANCH  30  34
ATOM     34  O   UNL     1      52.380  38.003  22.705  1.00  0.00    -0.324 OA
ATOM     35  H   UNL     1      51.739  37.256  22.598  1.00  0.00     0.221 HD
ENDBRANCH  30  34
ENDBRANCH  25  30
ENDBRANCH   2  25
TORSDOF 11
ENDMDL
MODEL 14
REMARK VINA RESULT:    -7.302      4.081      5.479
REMARK INTER + INTRA:         -13.086
REMARK INTER:                 -10.287
REMARK INTRA:                  -2.798
REMARK UNBOUND:                -1.515
REMARK SMILES CC(C)C[C@@H](C(=O)N[C@@H](Cc1ccccn1)C(=O)Nc1ccc(Cl)c(Cl)c1)P(=O)(O)O
REMARK SMILES IDX 8 1 6 2 7 3 9 5 17 6 19 7 18 8 20 10 27 11 21 12 25 13 22 14
REMARK SMILES IDX 23 15 26 16 24 17 10 18 11 19 12 20 16 21 13 22 15 23 14 24
REMARK SMILES IDX 5 25 4 26 2 27 1 28 3 29 28 30 29 31 31 32 30 34
REMARK H PARENT 8 4 19 9 31 33 30 35
ROOT
ATOM      1  N   UNL     1      52.184  33.480  20.895  1.00  0.00    -0.343 N 
ATOM      2  C   UNL     1      53.116  33.949  21.901  1.00  0.00     0.235 C 
ATOM      3  O   UNL     1      53.971  33.225  22.289  1.00  0.00    -0.274 OA
ATOM      4  H   UNL     1      51.433  34.110  20.580  1.00  0.00     0.164 HD
ENDROOT
BRANCH   1   5
ATOM      5  C   UNL     1      52.274  32.151  20.318  1.00  0.00     0.177 C 
BRANCH   5   6
ATOM      6  C   UNL     1      52.987  32.304  18.979  1.00  0.00     0.247 C 
ATOM      7  N   UNL     1      53.047  33.631  18.388  1.00  0.00    -0.324 N 
ATOM      8  O   UNL     1      53.471  31.367  18.441  1.00  0.00    -0.272 OA
ATOM      9  H   UNL     1      52.623  34.416  18.902  1.00  0.00     0.170 HD
BRANCH   7  10
ATOM     10  C   UNL     1      53.673  33.900  17.108  1.00  0.00     0.042 A 
ATOM     11  C   UNL     1      55.037  34.151  17.113  1.00  0.00     0.048 A 
ATOM     12  C   UNL     1      52.962  33.919  15.914  1.00  0.00     0.028 A 
ATOM     13  C   UNL     1      55.702  34.415  15.926  1.00  0.00     0.061 A 
ATOM     14  C   UNL     1      53.634  34.182  14.726  1.00  0.00     0.024 A 
ATOM     15  C   UNL     1      55.001  34.435  14.730  1.00  0.00     0.059 A 
ATOM     16  Cl  UNL     1      57.457  34.735  15.958  1.00  0.00    -0.083 Cl
ATOM     17  Cl  UNL     1      55.856  34.785  13.197  1.00  0.00    -0.083 Cl
ENDBRANCH   7  10
ENDBRANCH   5   6
BRANCH   5  18
ATOM     18  C   UNL     1      50.862  31.645  20.100  1.00  0.00     0.091 C 
BRANCH  18  19
ATOM     19  C   UNL     1      50.199  32.363  18.921  1.00  0.00     0.043 A 
ATOM     20  C   UNL     1      49.773  31.635  17.815  1.00  0.00     0.024 A 
ATOM     21  N   UNL     1      50.038  33.675  18.963  1.00  0.00    -0.261 NA
ATOM     22  C   UNL     1      49.178  32.290  16.740  1.00  0.00     0.003 A 
ATOM     23  C   UNL     1      49.472  34.330  17.961  1.00  0.00     0.111 A 
ATOM     24  C   UNL     1      49.025  33.671  16.823  1.00  0.00     0.020 A 
ENDBRANCH  18  19
ENDBRANCH   5  18
ENDBRANCH   1   5
BRANCH   2  25
ATOM     25  C   UNL     1      52.982  35.370  22.445  1.00  0.00     0.193 C 
BRANCH  25  26
ATOM     26  C   UNL     1      51.967  35.466  23.568  1.00  0.00     0.029 C 
BRANCH  26  27
ATOM     27  C   UNL     1      52.470  36.243  24.772  1.00  0.00    -0.016 C 
ATOM     28  C   UNL     1      53.997  36.243  24.754  1.00  0.00     0.007 C 
ATOM     29  C   UNL     1      51.971  37.675  24.887  1.00  0.00     0.007 C 
ENDBRANCH  26  27
ENDBRANCH  25  26
BRANCH  25  30
ATOM     30  P   UNL     1      52.458  36.472  21.042  1.00  0.00     0.337 P 
ATOM     31  O   UNL     1      53.393  36.240  19.885  1.00  0.00    -0.260 OA
BRANCH  30  32
ATOM     32  O   UNL     1      51.060  36.158  20.588  1.00  0.00    -0.324 OA
ATOM     33  H   UNL     1      50.898  36.573  19.704  1.00  0.00     0.221 HD
ENDBRANCH  30  32
BRANCH  30  34
ATOM     34  O   UNL     1      52.552  37.917  21.455  1.00  0.00    -0.324 OA
ATOM     35  H   UNL     1      52.719  37.973  22.429  1.00  0.00     0.221 HD
ENDBRANCH  30  34
ENDBRANCH  25  30
ENDBRANCH   2  25
TORSDOF 11
ENDMDL
MODEL 15
REMARK VINA RESULT:    -7.256      4.456      7.555
REMARK INTER + INTRA:         -13.013
REMARK INTER:                 -10.618
REMARK INTRA:                  -2.395
REMARK UNBOUND:                -1.515
REMARK SMILES CC(C)C[C@@H](C(=O)N[C@@H](Cc1ccccn1)C(=O)Nc1ccc(Cl)c(Cl)c1)P(=O)(O)O
REMARK SMILES IDX 8 1 6 2 7 3 9 5 17 6 19 7 18 8 20 10 27 11 21 12 25 13 22 14
REMARK SMILES IDX 23 15 26 16 24 17 10 18 11 19 12 20 16 21 13 22 15 23 14 24
REMARK SMILES IDX 5 25 4 26 2 27 1 28 3 29 28 30 29 31 31 32 30 34
REMARK H PARENT 8 4 19 9 31 33 30 35
ROOT
ATOM      1  N   UNL     1      51.549  32.403  19.426  1.00  0.00    -0.343 N 
ATOM      2  C   UNL     1      50.188  31.909  19.398  1.00  0.00     0.235 C 
ATOM      3  O   UNL     1      49.846  31.092  20.186  1.00  0.00    -0.274 OA
ATOM      4  H   UNL     1      51.841  33.098  18.725  1.00  0.00     0.164 HD
ENDROOT
BRANCH   1   5
ATOM      5  C   UNL     1      52.516  31.950  20.410  1.00  0.00     0.177 C 
BRANCH   5   6
ATOM      6  C   UNL     1      52.995  33.192  21.154  1.00  0.00     0.247 C 
ATOM      7  N   UNL     1      52.897  33.195  22.605  1.00  0.00    -0.324 N 
ATOM      8  O   UNL     1      53.428  34.121  20.562  1.00  0.00    -0.272 OA
ATOM      9  H   UNL     1      52.527  32.356  23.073  1.00  0.00     0.170 HD
BRANCH   7  10
ATOM     10  C   UNL     1      53.296  34.325  23.422  1.00  0.00     0.042 A 
ATOM     11  C   UNL     1      54.631  34.397  23.791  1.00  0.00     0.048 A 
ATOM     12  C   UNL     1      52.400  35.302  23.837  1.00  0.00     0.028 A 
ATOM     13  C   UNL     1      55.082  35.449  24.571  1.00  0.00     0.061 A 
ATOM     14  C   UNL     1      52.858  36.358  24.618  1.00  0.00     0.024 A 
ATOM     15  C   UNL     1      54.196  36.431  24.990  1.00  0.00     0.059 A 
ATOM     16  Cl  UNL     1      56.804  35.521  25.033  1.00  0.00    -0.083 Cl
ATOM     17  Cl  UNL     1      54.776  37.786  26.005  1.00  0.00    -0.083 Cl
ENDBRANCH   7  10
ENDBRANCH   5   6
BRANCH   5  18
ATOM     18  C   UNL     1      53.671  31.312  19.663  1.00  0.00     0.091 C 
BRANCH  18  19
ATOM     19  C   UNL     1      53.302  29.905  19.186  1.00  0.00     0.043 A 
ATOM     20  C   UNL     1      54.005  29.320  18.137  1.00  0.00     0.024 A 
ATOM     21  N   UNL     1      52.313  29.254  19.775  1.00  0.00    -0.261 NA
ATOM     22  C   UNL     1      53.664  28.044  17.699  1.00  0.00     0.003 A 
ATOM     23  C   UNL     1      51.964  28.037  19.388  1.00  0.00     0.111 A 
ATOM     24  C   UNL     1      52.618  27.391  18.346  1.00  0.00     0.020 A 
ENDBRANCH  18  19
ENDBRANCH   5  18
ENDBRANCH   1   5
BRANCH   2  25
ATOM     25  C   UNL     1      49.213  32.451  18.354  1.00  0.00     0.193 C 
BRANCH  25  26
ATOM     26  C   UNL     1      49.206  31.622  17.084  1.00  0.00     0.029 C 
BRANCH  26  27
ATOM     27  C   UNL     1      50.310  30.581  17.037  1.00  0.00    -0.016 C 
ATOM     28  C   UNL     1      49.687  29.216  16.753  1.00  0.00     0.007 C 
ATOM     29  C   UNL     1      51.420  30.843  16.031  1.00  0.00     0.007 C 
ENDBRANCH  26  27
ENDBRANCH  25  26
BRANCH  25  30
ATOM     30  P   UNL     1      49.718  34.195  17.950  1.00  0.00     0.337 P 
ATOM     31  O   UNL     1      51.004  34.144  17.170  1.00  0.00    -0.260 OA
BRANCH  30  32
ATOM     32  O   UNL     1      48.683  34.886  17.108  1.00  0.00    -0.324 OA
ATOM     33  H   UNL     1      48.440  35.750  17.526  1.00  0.00     0.221 HD
ENDBRANCH  30  32
BRANCH  30  34
ATOM     34  O   UNL     1      49.953  34.973  19.218  1.00  0.00    -0.324 OA
ATOM     35  H   UNL     1      49.102  35.057  19.717  1.00  0.00     0.221 HD
ENDBRANCH  30  34
ENDBRANCH  25  30
ENDBRANCH   2  25
TORSDOF 11
ENDMDL
MODEL 16
REMARK VINA RESULT:    -7.232      3.073      5.891
REMARK INTER + INTRA:         -12.975
REMARK INTER:                 -11.106
REMARK INTRA:                  -1.869
REMARK UNBOUND:                -1.515
REMARK SMILES CC(C)C[C@@H](C(=O)N[C@@H](Cc1ccccn1)C(=O)Nc1ccc(Cl)c(Cl)c1)P(=O)(O)O
REMARK SMILES IDX 8 1 6 2 7 3 9 5 17 6 19 7 18 8 20 10 27 11 21 12 25 13 22 14
REMARK SMILES IDX 23 15 26 16 24 17 10 18 11 19 12 20 16 21 13 22 15 23 14 24
REMARK SMILES IDX 5 25 4 26 2 27 1 28 3 29 28 30 29 31 31 32 30 34
REMARK H PARENT 8 4 19 9 31 33 30 35
ROOT
ATOM      1  N   UNL     1      54.410  35.252  22.547  1.00  0.00    -0.343 N 
ATOM      2  C   UNL     1      55.744  35.040  22.024  1.00  0.00     0.235 C 
ATOM      3  O   UNL     1      56.098  33.941  21.754  1.00  0.00    -0.274 OA
ATOM      4  H   UNL     1      54.120  36.208  22.797  1.00  0.00     0.164 HD
ENDROOT
BRANCH   1   5
ATOM      5  C   UNL     1      53.468  34.162  22.730  1.00  0.00     0.177 C 
BRANCH   5   6
ATOM      6  C   UNL     1      52.551  34.169  21.513  1.00  0.00     0.247 C 
ATOM      7  N   UNL     1      52.371  32.921  20.790  1.00  0.00    -0.324 N 
ATOM      8  O   UNL     1      52.009  35.164  21.171  1.00  0.00    -0.272 OA
ATOM      9  H   UNL     1      52.853  32.079  21.137  1.00  0.00     0.170 HD
BRANCH   7  10
ATOM     10  C   UNL     1      51.544  32.805  19.604  1.00  0.00     0.042 A 
ATOM     11  C   UNL     1      52.114  33.189  18.399  1.00  0.00     0.048 A 
ATOM     12  C   UNL     1      50.236  32.341  19.644  1.00  0.00     0.028 A 
ATOM     13  C   UNL     1      51.383  33.104  17.225  1.00  0.00     0.061 A 
ATOM     14  C   UNL     1      49.507  32.256  18.463  1.00  0.00     0.024 A 
ATOM     15  C   UNL     1      50.076  32.641  17.254  1.00  0.00     0.059 A 
ATOM     16  Cl  UNL     1      52.137  33.602  15.686  1.00  0.00    -0.083 Cl
ATOM     17  Cl  UNL     1      49.127  32.540  15.740  1.00  0.00    -0.083 Cl
ENDBRANCH   7  10
ENDBRANCH   5   6
BRANCH   5  18
ATOM     18  C   UNL     1      52.670  34.449  23.987  1.00  0.00     0.091 C 
BRANCH  18  19
ATOM     19  C   UNL     1      52.899  35.885  24.465  1.00  0.00     0.043 A 
ATOM     20  C   UNL     1      51.900  36.839  24.305  1.00  0.00     0.024 A 
ATOM     21  N   UNL     1      54.051  36.209  25.028  1.00  0.00    -0.261 NA
ATOM     22  C   UNL     1      52.113  38.147  24.733  1.00  0.00     0.003 A 
ATOM     23  C   UNL     1      54.287  37.441  25.452  1.00  0.00     0.111 A 
ATOM     24  C   UNL     1      53.338  38.448  25.322  1.00  0.00     0.020 A 
ENDBRANCH  18  19
ENDBRANCH   5  18
ENDBRANCH   1   5
BRANCH   2  25
ATOM     25  C   UNL     1      56.674  36.236  21.828  1.00  0.00     0.193 C 
BRANCH  25  26
ATOM     26  C   UNL     1      57.114  36.848  23.143  1.00  0.00     0.029 C 
BRANCH  26  27
ATOM     27  C   UNL     1      58.294  36.134  23.777  1.00  0.00    -0.016 C 
ATOM     28  C   UNL     1      57.779  35.228  24.893  1.00  0.00     0.007 C 
ATOM     29  C   UNL     1      59.157  35.317  22.828  1.00  0.00     0.007 C 
ENDBRANCH  26  27
ENDBRANCH  25  26
BRANCH  25  30
ATOM     30  P   UNL     1      55.762  37.511  20.827  1.00  0.00     0.337 P 
ATOM     31  O   UNL     1      55.078  36.812  19.683  1.00  0.00    -0.260 OA
BRANCH  30  32
ATOM     32  O   UNL     1      54.712  38.207  21.648  1.00  0.00    -0.324 OA
ATOM     33  H   UNL     1      54.864  38.018  22.608  1.00  0.00     0.221 HD
ENDBRANCH  30  32
BRANCH  30  34
ATOM     34  O   UNL     1      56.729  38.520  20.267  1.00  0.00    -0.324 OA
ATOM     35  H   UNL     1      56.393  38.852  19.396  1.00  0.00     0.221 HD
ENDBRANCH  30  34
ENDBRANCH  25  30
ENDBRANCH   2  25
TORSDOF 11
ENDMDL
MODEL 17
REMARK VINA RESULT:    -7.230      3.874      7.471
REMARK INTER + INTRA:         -12.973
REMARK INTER:                 -10.763
REMARK INTRA:                  -2.210
REMARK UNBOUND:                -1.515
REMARK SMILES CC(C)C[C@@H](C(=O)N[C@@H](Cc1ccccn1)C(=O)Nc1ccc(Cl)c(Cl)c1)P(=O)(O)O
REMARK SMILES IDX 8 1 6 2 7 3 9 5 17 6 19 7 18 8 20 10 27 11 21 12 25 13 22 14
REMARK SMILES IDX 23 15 26 16 24 17 10 18 11 19 12 20 16 21 13 22 15 23 14 24
REMARK SMILES IDX 5 25 4 26 2 27 1 28 3 29 28 30 29 31 31 32 30 34
REMARK H PARENT 8 4 19 9 31 33 30 35
ROOT
ATOM      1  N   UNL     1      52.069  32.426  19.639  1.00  0.00    -0.343 N 
ATOM      2  C   UNL     1      50.686  32.025  19.481  1.00  0.00     0.235 C 
ATOM      3  O   UNL     1      50.267  31.111  20.109  1.00  0.00    -0.274 OA
ATOM      4  H   UNL     1      52.429  33.209  19.075  1.00  0.00     0.164 HD
ENDROOT
BRANCH   1   5
ATOM      5  C   UNL     1      52.965  31.761  20.568  1.00  0.00     0.177 C 
BRANCH   5   6
ATOM      6  C   UNL     1      53.597  32.854  21.424  1.00  0.00     0.247 C 
ATOM      7  N   UNL     1      52.898  33.260  22.632  1.00  0.00    -0.324 N 
ATOM      8  O   UNL     1      54.621  33.354  21.105  1.00  0.00    -0.272 OA
ATOM      9  H   UNL     1      52.017  32.784  22.872  1.00  0.00     0.170 HD
BRANCH   7  10
ATOM     10  C   UNL     1      53.383  34.305  23.514  1.00  0.00     0.042 A 
ATOM     11  C   UNL     1      52.805  35.558  23.385  1.00  0.00     0.048 A 
ATOM     12  C   UNL     1      54.387  34.089  24.449  1.00  0.00     0.028 A 
ATOM     13  C   UNL     1      53.218  36.603  24.195  1.00  0.00     0.061 A 
ATOM     14  C   UNL     1      54.797  35.139  25.262  1.00  0.00     0.024 A 
ATOM     15  C   UNL     1      54.219  36.397  25.134  1.00  0.00     0.059 A 
ATOM     16  Cl  UNL     1      52.458  38.207  24.013  1.00  0.00    -0.083 Cl
ATOM     17  Cl  UNL     1      54.761  37.748  26.175  1.00  0.00    -0.083 Cl
ENDBRANCH   7  10
ENDBRANCH   5   6
BRANCH   5  18
ATOM     18  C   UNL     1      54.032  31.056  19.754  1.00  0.00     0.091 C 
BRANCH  18  19
ATOM     19  C   UNL     1      53.401  30.168  18.678  1.00  0.00     0.043 A 
ATOM     20  C   UNL     1      52.910  28.910  19.014  1.00  0.00     0.024 A 
ATOM     21  N   UNL     1      53.329  30.604  17.432  1.00  0.00    -0.261 NA
ATOM     22  C   UNL     1      52.344  28.101  18.033  1.00  0.00     0.003 A 
ATOM     23  C   UNL     1      52.793  29.864  16.474  1.00  0.00     0.111 A 
ATOM     24  C   UNL     1      52.285  28.597  16.734  1.00  0.00     0.020 A 
ENDBRANCH  18  19
ENDBRANCH   5  18
ENDBRANCH   1   5
BRANCH   2  25
ATOM     25  C   UNL     1      49.789  32.788  18.507  1.00  0.00     0.193 C 
BRANCH  25  26
ATOM     26  C   UNL     1      49.825  32.205  17.109  1.00  0.00     0.029 C 
BRANCH  26  27
ATOM     27  C   UNL     1      48.457  32.111  16.457  1.00  0.00    -0.016 C 
ATOM     28  C   UNL     1      47.389  32.167  17.547  1.00  0.00     0.007 C 
ATOM     29  C   UNL     1      48.155  33.166  15.405  1.00  0.00     0.007 C 
ENDBRANCH  26  27
ENDBRANCH  25  26
BRANCH  25  30
ATOM     30  P   UNL     1      50.373  34.553  18.456  1.00  0.00     0.337 P 
ATOM     31  O   UNL     1      51.668  34.599  17.691  1.00  0.00    -0.260 OA
BRANCH  30  32
ATOM     32  O   UNL     1      49.381  35.441  17.756  1.00  0.00    -0.324 OA
ATOM     33  H   UNL     1      48.753  34.884  17.231  1.00  0.00     0.221 HD
ENDBRANCH  30  32
BRANCH  30  34
ATOM     34  O   UNL     1      50.619  35.059  19.852  1.00  0.00    -0.324 OA
ATOM     35  H   UNL     1      49.798  34.948  20.394  1.00  0.00     0.221 HD
ENDBRANCH  30  34
ENDBRANCH  25  30
ENDBRANCH   2  25
TORSDOF 11
ENDMDL
MODEL 18
REMARK VINA RESULT:    -7.212      5.257      9.081
REMARK INTER + INTRA:         -12.944
REMARK INTER:                 -11.191
REMARK INTRA:                  -1.753
REMARK UNBOUND:                -1.515
REMARK SMILES CC(C)C[C@@H](C(=O)N[C@@H](Cc1ccccn1)C(=O)Nc1ccc(Cl)c(Cl)c1)P(=O)(O)O
REMARK SMILES IDX 8 1 6 2 7 3 9 5 17 6 19 7 18 8 20 10 27 11 21 12 25 13 22 14
REMARK SMILES IDX 23 15 26 16 24 17 10 18 11 19 12 20 16 21 13 22 15 23 14 24
REMARK SMILES IDX 5 25 4 26 2 27 1 28 3 29 28 30 29 31 31 32 30 34
REMARK H PARENT 8 4 19 9 31 33 30 35
ROOT
ATOM      1  N   UNL     1      52.362  34.904  21.229  1.00  0.00    -0.343 N 
ATOM      2  C   UNL     1      51.534  34.892  20.041  1.00  0.00     0.235 C 
ATOM      3  O   UNL     1      50.928  35.865  19.739  1.00  0.00    -0.274 OA
ATOM      4  H   UNL     1      52.868  34.047  21.493  1.00  0.00     0.164 HD
ENDROOT
BRANCH   1   5
ATOM      5  C   UNL     1      52.502  36.086  22.061  1.00  0.00     0.177 C 
BRANCH   5   6
ATOM      6  C   UNL     1      53.568  36.957  21.406  1.00  0.00     0.247 C 
ATOM      7  N   UNL     1      54.841  36.340  21.075  1.00  0.00    -0.324 N 
ATOM      8  O   UNL     1      53.359  38.101  21.183  1.00  0.00    -0.272 OA
ATOM      9  H   UNL     1      54.968  35.338  21.276  1.00  0.00     0.170 HD
BRANCH   7  10
ATOM     10  C   UNL     1      55.941  37.070  20.473  1.00  0.00     0.042 A 
ATOM     11  C   UNL     1      56.705  37.866  21.314  1.00  0.00     0.048 A 
ATOM     12  C   UNL     1      56.235  36.999  19.118  1.00  0.00     0.028 A 
ATOM     13  C   UNL     1      57.772  38.590  20.808  1.00  0.00     0.061 A 
ATOM     14  C   UNL     1      57.309  37.725  18.615  1.00  0.00     0.024 A 
ATOM     15  C   UNL     1      58.075  38.525  19.456  1.00  0.00     0.059 A 
ATOM     16  Cl  UNL     1      58.741  39.607  21.909  1.00  0.00    -0.083 Cl
ATOM     17  Cl  UNL     1      59.447  39.467  18.800  1.00  0.00    -0.083 Cl
ENDBRANCH   7  10
ENDBRANCH   5   6
BRANCH   5  18
ATOM     18  C   UNL     1      52.968  35.633  23.431  1.00  0.00     0.091 C 
BRANCH  18  19
ATOM     19  C   UNL     1      53.166  36.831  24.365  1.00  0.00     0.043 A 
ATOM     20  C   UNL     1      52.078  37.620  24.723  1.00  0.00     0.024 A 
ATOM     21  N   UNL     1      54.375  37.108  24.823  1.00  0.00    -0.261 NA
ATOM     22  C   UNL     1      52.260  38.713  25.566  1.00  0.00     0.003 A 
ATOM     23  C   UNL     1      54.585  38.136  25.631  1.00  0.00     0.111 A 
ATOM     24  C   UNL     1      53.547  38.971  26.029  1.00  0.00     0.020 A 
ENDBRANCH  18  19
ENDBRANCH   5  18
ENDBRANCH   1   5
BRANCH   2  25
ATOM     25  C   UNL     1      51.455  33.623  19.193  1.00  0.00     0.193 C 
BRANCH  25  26
ATOM     26  C   UNL     1      51.747  32.371  19.997  1.00  0.00     0.029 C 
BRANCH  26  27
ATOM     27  C   UNL     1      50.673  31.306  19.868  1.00  0.00    -0.016 C 
ATOM     28  C   UNL     1      49.396  31.956  19.338  1.00  0.00     0.007 C 
ATOM     29  C   UNL     1      51.028  30.115  18.991  1.00  0.00     0.007 C 
ENDBRANCH  26  27
ENDBRANCH  25  26
BRANCH  25  30
ATOM     30  P   UNL     1      52.696  33.777  17.816  1.00  0.00     0.337 P 
ATOM     31  O   UNL     1      53.798  34.694  18.276  1.00  0.00    -0.260 OA
BRANCH  30  32
ATOM     32  O   UNL     1      53.304  32.446  17.472  1.00  0.00    -0.324 OA
ATOM     33  H   UNL     1      53.878  32.542  16.671  1.00  0.00     0.221 HD
ENDBRANCH  30  32
BRANCH  30  34
ATOM     34  O   UNL     1      52.046  34.377  16.597  1.00  0.00    -0.324 OA
ATOM     35  H   UNL     1      51.067  34.423  16.734  1.00  0.00     0.221 HD
ENDBRANCH  30  34
ENDBRANCH  25  30
ENDBRANCH   2  25
TORSDOF 11
ENDMDL
MODEL 19
REMARK VINA RESULT:    -7.182      4.324      7.695
REMARK INTER + INTRA:         -12.896
REMARK INTER:                 -10.851
REMARK INTRA:                  -2.045
REMARK UNBOUND:                -1.515
REMARK SMILES CC(C)C[C@@H](C(=O)N[C@@H](Cc1ccccn1)C(=O)Nc1ccc(Cl)c(Cl)c1)P(=O)(O)O
REMARK SMILES IDX 8 1 6 2 7 3 9 5 17 6 19 7 18 8 20 10 27 11 21 12 25 13 22 14
REMARK SMILES IDX 23 15 26 16 24 17 10 18 11 19 12 20 16 21 13 22 15 23 14 24
REMARK SMILES IDX 5 25 4 26 2 27 1 28 3 29 28 30 29 31 31 32 30 34
REMARK H PARENT 8 4 19 9 31 33 30 35
ROOT
ATOM      1  N   UNL     1      53.095  33.352  20.309  1.00  0.00    -0.343 N 
ATOM      2  C   UNL     1      51.906  32.543  20.133  1.00  0.00     0.235 C 
ATOM      3  O   UNL     1      51.819  31.501  20.691  1.00  0.00    -0.274 OA
ATOM      4  H   UNL     1      53.168  34.245  19.803  1.00  0.00     0.164 HD
ENDROOT
BRANCH   1   5
ATOM      5  C   UNL     1      54.186  32.944  21.175  1.00  0.00     0.177 C 
BRANCH   5   6
ATOM      6  C   UNL     1      54.111  33.825  22.417  1.00  0.00     0.247 C 
ATOM      7  N   UNL     1      54.573  35.199  22.304  1.00  0.00    -0.324 N 
ATOM      8  O   UNL     1      53.693  33.396  23.438  1.00  0.00    -0.272 OA
ATOM      9  H   UNL     1      54.914  35.528  21.390  1.00  0.00     0.170 HD
BRANCH   7  10
ATOM     10  C   UNL     1      54.576  36.127  23.419  1.00  0.00     0.042 A 
ATOM     11  C   UNL     1      53.399  36.815  23.671  1.00  0.00     0.048 A 
ATOM     12  C   UNL     1      55.696  36.341  24.212  1.00  0.00     0.028 A 
ATOM     13  C   UNL     1      53.330  37.716  24.721  1.00  0.00     0.061 A 
ATOM     14  C   UNL     1      55.622  37.245  25.266  1.00  0.00     0.024 A 
ATOM     15  C   UNL     1      54.443  37.937  25.519  1.00  0.00     0.059 A 
ATOM     16  Cl  UNL     1      51.804  38.591  25.026  1.00  0.00    -0.083 Cl
ATOM     17  Cl  UNL     1      54.358  39.108  26.870  1.00  0.00    -0.083 Cl
ENDBRANCH   7  10
ENDBRANCH   5   6
BRANCH   5  18
ATOM     18  C   UNL     1      55.484  33.198  20.433  1.00  0.00     0.091 C 
BRANCH  18  19
ATOM     19  C   UNL     1      55.921  31.953  19.655  1.00  0.00     0.043 A 
ATOM     20  C   UNL     1      56.927  32.049  18.699  1.00  0.00     0.024 A 
ATOM     21  N   UNL     1      55.335  30.793  19.898  1.00  0.00    -0.261 NA
ATOM     22  C   UNL     1      57.318  30.919  17.987  1.00  0.00     0.003 A 
ATOM     23  C   UNL     1      55.685  29.696  19.243  1.00  0.00     0.111 A 
ATOM     24  C   UNL     1      56.679  29.716  18.272  1.00  0.00     0.020 A 
ENDBRANCH  18  19
ENDBRANCH   5  18
ENDBRANCH   1   5
BRANCH   2  25
ATOM     25  C   UNL     1      50.781  33.046  19.229  1.00  0.00     0.193 C 
BRANCH  25  26
ATOM     26  C   UNL     1      50.799  32.389  17.863  1.00  0.00     0.029 C 
BRANCH  26  27
ATOM     27  C   UNL     1      49.577  31.532  17.589  1.00  0.00    -0.016 C 
ATOM     28  C   UNL     1      50.005  30.066  17.539  1.00  0.00     0.007 C 
ATOM     29  C   UNL     1      48.430  31.684  18.576  1.00  0.00     0.007 C 
ENDBRANCH  26  27
ENDBRANCH  25  26
BRANCH  25  30
ATOM     30  P   UNL     1      50.985  34.885  19.033  1.00  0.00     0.337 P 
ATOM     31  O   UNL     1      52.281  35.141  18.312  1.00  0.00    -0.260 OA
BRANCH  30  32
ATOM     32  O   UNL     1      49.869  35.478  18.220  1.00  0.00    -0.324 OA
ATOM     33  H   UNL     1      50.241  35.895  17.403  1.00  0.00     0.221 HD
ENDBRANCH  30  32
BRANCH  30  34
ATOM     34  O   UNL     1      51.046  35.546  20.384  1.00  0.00    -0.324 OA
ATOM     35  H   UNL     1      51.639  35.025  20.981  1.00  0.00     0.221 HD
ENDBRANCH  30  34
ENDBRANCH  25  30
ENDBRANCH   2  25
TORSDOF 11
ENDMDL
MODEL 20
REMARK VINA RESULT:    -7.027      4.330      7.570
REMARK INTER + INTRA:         -12.651
REMARK INTER:                  -9.933
REMARK INTRA:                  -2.718
REMARK UNBOUND:                -1.515
REMARK SMILES CC(C)C[C@@H](C(=O)N[C@@H](Cc1ccccn1)C(=O)Nc1ccc(Cl)c(Cl)c1)P(=O)(O)O
REMARK SMILES IDX 8 1 6 2 7 3 9 5 17 6 19 7 18 8 20 10 27 11 21 12 25 13 22 14
REMARK SMILES IDX 23 15 26 16 24 17 10 18 11 19 12 20 16 21 13 22 15 23 14 24
REMARK SMILES IDX 5 25 4 26 2 27 1 28 3 29 28 30 29 31 31 32 30 34
REMARK H PARENT 8 4 19 9 31 33 30 35
ROOT
ATOM      1  N   UNL     1      52.108  33.275  19.110  1.00  0.00    -0.343 N 
ATOM      2  C   UNL     1      53.061  32.919  18.078  1.00  0.00     0.235 C 
ATOM      3  O   UNL     1      53.140  33.585  17.100  1.00  0.00    -0.274 OA
ATOM      4  H   UNL     1      52.033  32.679  19.945  1.00  0.00     0.164 HD
ENDROOT
BRANCH   1   5
ATOM      5  C   UNL     1      51.255  34.445  19.004  1.00  0.00     0.177 C 
BRANCH   5   6
ATOM      6  C   UNL     1      51.728  35.427  20.070  1.00  0.00     0.247 C 
ATOM      7  N   UNL     1      52.118  34.891  21.363  1.00  0.00    -0.324 N 
ATOM      8  O   UNL     1      51.767  36.589  19.845  1.00  0.00    -0.272 OA
ATOM      9  H   UNL     1      52.079  33.872  21.504  1.00  0.00     0.170 HD
BRANCH   7  10
ATOM     10  C   UNL     1      52.560  35.725  22.465  1.00  0.00     0.042 A 
ATOM     11  C   UNL     1      53.911  36.031  22.523  1.00  0.00     0.048 A 
ATOM     12  C   UNL     1      51.691  36.204  23.437  1.00  0.00     0.028 A 
ATOM     13  C   UNL     1      54.403  36.824  23.547  1.00  0.00     0.061 A 
ATOM     14  C   UNL     1      52.188  37.001  24.463  1.00  0.00     0.024 A 
ATOM     15  C   UNL     1      53.543  37.308  24.523  1.00  0.00     0.059 A 
ATOM     16  Cl  UNL     1      56.145  37.205  23.601  1.00  0.00    -0.083 Cl
ATOM     17  Cl  UNL     1      54.178  38.324  25.852  1.00  0.00    -0.083 Cl
ENDBRANCH   7  10
ENDBRANCH   5   6
BRANCH   5  18
ATOM     18  C   UNL     1      49.833  34.007  19.293  1.00  0.00     0.091 C 
BRANCH  18  19
ATOM     19  C   UNL     1      49.237  33.261  18.096  1.00  0.00     0.043 A 
ATOM     20  C   UNL     1      49.513  33.690  16.801  1.00  0.00     0.024 A 
ATOM     21  N   UNL     1      48.460  32.211  18.303  1.00  0.00    -0.261 NA
ATOM     22  C   UNL     1      48.964  33.015  15.715  1.00  0.00     0.003 A 
ATOM     23  C   UNL     1      47.925  31.542  17.293  1.00  0.00     0.111 A 
ATOM     24  C   UNL     1      48.153  31.914  15.974  1.00  0.00     0.020 A 
ENDBRANCH  18  19
ENDBRANCH   5  18
ENDBRANCH   1   5
BRANCH   2  25
ATOM     25  C   UNL     1      53.950  31.691  18.266  1.00  0.00     0.193 C 
BRANCH  25  26
ATOM     26  C   UNL     1      53.334  30.436  17.677  1.00  0.00     0.029 C 
BRANCH  26  27
ATOM     27  C   UNL     1      51.845  30.562  17.411  1.00  0.00    -0.016 C 
ATOM     28  C   UNL     1      51.594  30.370  15.917  1.00  0.00     0.007 C 
ATOM     29  C   UNL     1      50.954  29.610  18.194  1.00  0.00     0.007 C 
ENDBRANCH  26  27
ENDBRANCH  25  26
BRANCH  25  30
ATOM     30  P   UNL     1      54.214  31.451  20.092  1.00  0.00     0.337 P 
ATOM     31  O   UNL     1      54.437  32.802  20.717  1.00  0.00    -0.260 OA
BRANCH  30  32
ATOM     32  O   UNL     1      53.013  30.824  20.744  1.00  0.00    -0.324 OA
ATOM     33  H   UNL     1      52.491  30.326  20.065  1.00  0.00     0.221 HD
ENDBRANCH  30  32
BRANCH  30  34
ATOM     34  O   UNL     1      55.433  30.601  20.332  1.00  0.00    -0.324 OA
ATOM     35  H   UNL     1      55.162  29.745  20.750  1.00  0.00     0.221 HD
ENDBRANCH  30  34
ENDBRANCH  25  30
ENDBRANCH   2  25
TORSDOF 11
ENDMDL
