MODEL 1
REMARK VINA RESULT:    -9.136      0.000      0.000
REMARK INTER + INTRA:         -14.858
REMARK INTER:                 -13.943
REMARK INTRA:                  -0.915
REMARK UNBOUND:                -0.915
REMARK SMILES CC(C)C[C@H](C(=O)Nc1ccc(NS(=O)(=O)c2ccc(Cl)c(Cl)c2)cc1)P(=O)(O)O
REMARK SMILES IDX 9 1 11 2 25 3 10 4 26 5 12 6 8 7 6 8 7 9 5 11 4 12 2 13 1 14
REMARK SMILES IDX 3 15 27 16 28 17 29 18 30 20 13 22 14 24 16 25 15 26 17 27
REMARK SMILES IDX 18 28 24 29 19 30 22 31 20 32 23 33 21 34
REMARK H PARENT 8 10 29 19 30 21 13 23
ROOT
ATOM      1  C   UNL     1      52.857  35.562  21.681  1.00  0.00     0.041 A 
ATOM      2  C   UNL     1      51.016  34.834  20.304  1.00  0.00     0.029 A 
ATOM      3  C   UNL     1      53.289  34.426  19.620  1.00  0.00     0.029 A 
ATOM      4  C   UNL     1      51.497  35.468  21.457  1.00  0.00     0.028 A 
ATOM      5  C   UNL     1      53.756  35.058  20.768  1.00  0.00     0.028 A 
ATOM      6  C   UNL     1      51.922  34.307  19.390  1.00  0.00     0.049 A 
ENDROOT
BRANCH   1   7
ATOM      7  N   UNL     1      53.292  36.258  22.878  1.00  0.00    -0.325 N 
ATOM      8  C   UNL     1      53.305  37.679  23.021  1.00  0.00     0.239 C 
ATOM      9  O   UNL     1      53.000  38.464  22.149  1.00  0.00    -0.274 OA
ATOM     10  H   UNL     1      53.612  35.691  23.676  1.00  0.00     0.169 HD
BRANCH   8  11
ATOM     11  C   UNL     1      53.832  38.129  24.383  1.00  0.00     0.194 C 
BRANCH  11  12
ATOM     12  C   UNL     1      52.665  38.421  25.302  1.00  0.00     0.029 C 
BRANCH  12  13
ATOM     13  C   UNL     1      52.700  39.744  26.033  1.00  0.00    -0.016 C 
ATOM     14  C   UNL     1      53.911  39.739  26.966  1.00  0.00     0.007 C 
ATOM     15  C   UNL     1      51.424  39.994  26.821  1.00  0.00     0.007 C 
ENDBRANCH  12  13
ENDBRANCH  11  12
BRANCH  11  16
ATOM     16  P   UNL     1      54.952  36.798  25.014  1.00  0.00     0.337 P 
ATOM     17  O   UNL     1      54.204  35.547  25.419  1.00  0.00    -0.260 OA
BRANCH  16  18
ATOM     18  O   UNL     1      55.981  36.576  23.884  1.00  0.00    -0.324 OA
ATOM     19  H   UNL     1      56.800  36.164  24.259  1.00  0.00     0.221 HD
ENDBRANCH  16  18
BRANCH  16  20
ATOM     20  O   UNL     1      55.668  37.314  26.244  1.00  0.00    -0.324 OA
ATOM     21  H   UNL     1      55.078  37.943  26.730  1.00  0.00     0.221 HD
ENDBRANCH  16  20
ENDBRANCH  11  16
ENDBRANCH   8  11
ENDBRANCH   1   7
BRANCH   6  22
ATOM     22  N   UNL     1      51.490  33.647  18.165  1.00  0.00    -0.280 N 
ATOM     23  H   UNL     1      51.824  34.028  17.268  1.00  0.00     0.180 HD
BRANCH  22  24
ATOM     24  S   UNL     1      50.465  32.286  18.125  1.00  0.00     0.261 S 
ATOM     25  O   UNL     1      51.054  31.104  17.479  1.00  0.00    -0.201 OA
ATOM     26  O   UNL     1      50.102  31.802  19.464  1.00  0.00    -0.201 OA
BRANCH  24  27
ATOM     27  C   UNL     1      49.030  32.881  17.207  1.00  0.00     0.089 A 
ATOM     28  C   UNL     1      48.277  33.893  17.764  1.00  0.00     0.024 A 
ATOM     29  C   UNL     1      48.732  32.351  15.966  1.00  0.00     0.044 A 
ATOM     30  C   UNL     1      47.188  34.377  17.076  1.00  0.00     0.023 A 
ATOM     31  C   UNL     1      47.643  32.836  15.269  1.00  0.00     0.061 A 
ATOM     32  C   UNL     1      46.873  33.855  15.834  1.00  0.00     0.059 A 
ATOM     33  Cl  UNL     1      47.288  32.118  13.669  1.00  0.00    -0.083 Cl
ATOM     34  Cl  UNL     1      45.451  34.548  15.020  1.00  0.00    -0.083 Cl
ENDBRANCH  24  27
ENDBRANCH  22  24
ENDBRANCH   6  22
TORSDOF 10
ENDMDL
MODEL 2
REMARK VINA RESULT:    -9.106      1.954      2.597
REMARK INTER + INTRA:         -14.813
REMARK INTER:                 -13.635
REMARK INTRA:                  -1.178
REMARK UNBOUND:                -0.915
REMARK SMILES CC(C)C[C@H](C(=O)Nc1ccc(NS(=O)(=O)c2ccc(Cl)c(Cl)c2)cc1)P(=O)(O)O
REMARK SMILES IDX 9 1 11 2 25 3 10 4 26 5 12 6 8 7 6 8 7 9 5 11 4 12 2 13 1 14
REMARK SMILES IDX 3 15 27 16 28 17 29 18 30 20 13 22 14 24 16 25 15 26 17 27
REMARK SMILES IDX 18 28 24 29 19 30 22 31 20 32 23 33 21 34
REMARK H PARENT 8 10 29 19 30 21 13 23
ROOT
ATOM      1  C   UNL     1      52.415  34.185  20.785  1.00  0.00     0.041 A 
ATOM      2  C   UNL     1      52.549  32.487  19.077  1.00  0.00     0.029 A 
ATOM      3  C   UNL     1      50.429  33.059  20.068  1.00  0.00     0.029 A 
ATOM      4  C   UNL     1      53.168  33.434  19.902  1.00  0.00     0.028 A 
ATOM      5  C   UNL     1      51.054  33.997  20.883  1.00  0.00     0.028 A 
ATOM      6  C   UNL     1      51.171  32.309  19.162  1.00  0.00     0.049 A 
ENDROOT
BRANCH   1   7
ATOM      7  N   UNL     1      53.120  35.127  21.634  1.00  0.00    -0.325 N 
ATOM      8  C   UNL     1      52.946  36.543  21.581  1.00  0.00     0.239 C 
ATOM      9  O   UNL     1      52.228  37.122  20.794  1.00  0.00    -0.274 OA
ATOM     10  H   UNL     1      53.790  34.750  22.319  1.00  0.00     0.169 HD
BRANCH   8  11
ATOM     11  C   UNL     1      53.836  37.284  22.579  1.00  0.00     0.194 C 
BRANCH  11  12
ATOM     12  C   UNL     1      53.636  36.699  23.960  1.00  0.00     0.029 C 
BRANCH  12  13
ATOM     13  C   UNL     1      53.541  37.687  25.101  1.00  0.00    -0.016 C 
ATOM     14  C   UNL     1      54.486  37.224  26.210  1.00  0.00     0.007 C 
ATOM     15  C   UNL     1      52.121  37.812  25.631  1.00  0.00     0.007 C 
ENDBRANCH  12  13
ENDBRANCH  11  12
BRANCH  11  16
ATOM     16  P   UNL     1      55.578  37.159  21.970  1.00  0.00     0.337 P 
ATOM     17  O   UNL     1      56.098  38.465  21.411  1.00  0.00    -0.260 OA
BRANCH  16  18
ATOM     18  O   UNL     1      56.384  36.629  23.176  1.00  0.00    -0.324 OA
ATOM     19  H   UNL     1      55.848  35.951  23.660  1.00  0.00     0.221 HD
ENDBRANCH  16  18
BRANCH  16  20
ATOM     20  O   UNL     1      55.626  36.139  20.853  1.00  0.00    -0.324 OA
ATOM     21  H   UNL     1      56.563  35.855  20.705  1.00  0.00     0.221 HD
ENDBRANCH  16  20
ENDBRANCH  11  16
ENDBRANCH   8  11
ENDBRANCH   1   7
BRANCH   6  22
ATOM     22  N   UNL     1      50.466  31.332  18.342  1.00  0.00    -0.280 N 
ATOM     23  H   UNL     1      50.151  30.461  18.793  1.00  0.00     0.180 HD
BRANCH  22  24
ATOM     24  S   UNL     1      50.131  31.541  16.684  1.00  0.00     0.261 S 
ATOM     25  O   UNL     1      51.139  32.327  15.957  1.00  0.00    -0.201 OA
ATOM     26  O   UNL     1      50.085  30.272  15.944  1.00  0.00    -0.201 OA
BRANCH  24  27
ATOM     27  C   UNL     1      48.534  32.380  16.692  1.00  0.00     0.089 A 
ATOM     28  C   UNL     1      48.473  33.654  17.216  1.00  0.00     0.024 A 
ATOM     29  C   UNL     1      47.424  31.763  16.149  1.00  0.00     0.044 A 
ATOM     30  C   UNL     1      47.270  34.323  17.217  1.00  0.00     0.023 A 
ATOM     31  C   UNL     1      46.215  32.431  16.144  1.00  0.00     0.061 A 
ATOM     32  C   UNL     1      46.147  33.718  16.681  1.00  0.00     0.059 A 
ATOM     33  Cl  UNL     1      44.801  31.593  15.437  1.00  0.00    -0.083 Cl
ATOM     34  Cl  UNL     1      44.641  34.663  16.723  1.00  0.00    -0.083 Cl
ENDBRANCH  24  27
ENDBRANCH  22  24
ENDBRANCH   6  22
TORSDOF 10
ENDMDL
MODEL 3
REMARK VINA RESULT:    -9.029      8.287     11.277
REMARK INTER + INTRA:         -14.695
REMARK INTER:                 -13.402
REMARK INTRA:                  -1.292
REMARK UNBOUND:                -0.915
REMARK SMILES CC(C)C[C@H](C(=O)Nc1ccc(NS(=O)(=O)c2ccc(Cl)c(Cl)c2)cc1)P(=O)(O)O
REMARK SMILES IDX 9 1 11 2 25 3 10 4 26 5 12 6 8 7 6 8 7 9 5 11 4 12 2 13 1 14
REMARK SMILES IDX 3 15 27 16 28 17 29 18 30 20 13 22 14 24 16 25 15 26 17 27
REMARK SMILES IDX 18 28 24 29 19 30 22 31 20 32 23 33 21 34
REMARK H PARENT 8 10 29 19 30 21 13 23
ROOT
ATOM      1  C   UNL     1      57.109  37.158  21.359  1.00  0.00     0.041 A 
ATOM      2  C   UNL     1      58.339  37.862  19.407  1.00  0.00     0.029 A 
ATOM      3  C   UNL     1      59.291  38.108  21.607  1.00  0.00     0.029 A 
ATOM      4  C   UNL     1      57.189  37.313  19.987  1.00  0.00     0.028 A 
ATOM      5  C   UNL     1      58.143  37.561  22.172  1.00  0.00     0.028 A 
ATOM      6  C   UNL     1      59.394  38.253  20.227  1.00  0.00     0.049 A 
ENDROOT
BRANCH   1   7
ATOM      7  N   UNL     1      55.878  36.612  21.900  1.00  0.00    -0.325 N 
ATOM      8  C   UNL     1      54.749  37.398  22.281  1.00  0.00     0.239 C 
ATOM      9  O   UNL     1      54.706  38.609  22.241  1.00  0.00    -0.274 OA
ATOM     10  H   UNL     1      55.814  35.590  22.016  1.00  0.00     0.169 HD
BRANCH   8  11
ATOM     11  C   UNL     1      53.604  36.554  22.838  1.00  0.00     0.194 C 
BRANCH  11  12
ATOM     12  C   UNL     1      52.644  37.446  23.595  1.00  0.00     0.029 C 
BRANCH  12  13
ATOM     13  C   UNL     1      52.692  37.358  25.104  1.00  0.00    -0.016 C 
ATOM     14  C   UNL     1      53.111  38.725  25.646  1.00  0.00     0.007 C 
ATOM     15  C   UNL     1      53.654  36.280  25.580  1.00  0.00     0.007 C 
ENDBRANCH  12  13
ENDBRANCH  11  12
BRANCH  11  16
ATOM     16  P   UNL     1      52.822  35.669  21.414  1.00  0.00     0.337 P 
ATOM     17  O   UNL     1      52.152  36.610  20.436  1.00  0.00    -0.260 OA
BRANCH  16  18
ATOM     18  O   UNL     1      53.960  34.828  20.795  1.00  0.00    -0.324 OA
ATOM     19  H   UNL     1      54.217  34.107  21.423  1.00  0.00     0.221 HD
ENDBRANCH  16  18
BRANCH  16  20
ATOM     20  O   UNL     1      51.754  34.741  21.951  1.00  0.00    -0.324 OA
ATOM     21  H   UNL     1      51.156  34.463  21.212  1.00  0.00     0.221 HD
ENDBRANCH  16  20
ENDBRANCH  11  16
ENDBRANCH   8  11
ENDBRANCH   1   7
BRANCH   6  22
ATOM     22  N   UNL     1      60.613  38.843  19.690  1.00  0.00    -0.280 N 
ATOM     23  H   UNL     1      61.415  38.220  19.517  1.00  0.00     0.180 HD
BRANCH  22  24
ATOM     24  S   UNL     1      60.794  40.499  19.332  1.00  0.00     0.261 S 
ATOM     25  O   UNL     1      61.653  40.777  18.172  1.00  0.00    -0.201 OA
ATOM     26  O   UNL     1      59.524  41.153  18.984  1.00  0.00    -0.201 OA
BRANCH  24  27
ATOM     27  C   UNL     1      61.509  41.170  20.846  1.00  0.00     0.089 A 
ATOM     28  C   UNL     1      61.422  42.530  21.058  1.00  0.00     0.024 A 
ATOM     29  C   UNL     1      62.089  40.325  21.773  1.00  0.00     0.044 A 
ATOM     30  C   UNL     1      61.944  43.064  22.214  1.00  0.00     0.023 A 
ATOM     31  C   UNL     1      62.610  40.856  22.936  1.00  0.00     0.061 A 
ATOM     32  C   UNL     1      62.531  42.233  23.151  1.00  0.00     0.059 A 
ATOM     33  Cl  UNL     1      63.358  39.728  24.107  1.00  0.00    -0.083 Cl
ATOM     34  Cl  UNL     1      63.172  43.016  24.614  1.00  0.00    -0.083 Cl
ENDBRANCH  24  27
ENDBRANCH  22  24
ENDBRANCH   6  22
TORSDOF 10
ENDMDL
MODEL 4
REMARK VINA RESULT:    -8.470      2.108      2.998
REMARK INTER + INTRA:         -13.841
REMARK INTER:                 -12.719
REMARK INTRA:                  -1.123
REMARK UNBOUND:                -0.915
REMARK SMILES CC(C)C[C@H](C(=O)Nc1ccc(NS(=O)(=O)c2ccc(Cl)c(Cl)c2)cc1)P(=O)(O)O
REMARK SMILES IDX 9 1 11 2 25 3 10 4 26 5 12 6 8 7 6 8 7 9 5 11 4 12 2 13 1 14
REMARK SMILES IDX 3 15 27 16 28 17 29 18 30 20 13 22 14 24 16 25 15 26 17 27
REMARK SMILES IDX 18 28 24 29 19 30 22 31 20 32 23 33 21 34
REMARK H PARENT 8 10 29 19 30 21 13 23
ROOT
ATOM      1  C   UNL     1      52.320  34.672  20.542  1.00  0.00     0.041 A 
ATOM      2  C   UNL     1      50.187  33.763  19.878  1.00  0.00     0.029 A 
ATOM      3  C   UNL     1      52.023  33.837  18.320  1.00  0.00     0.029 A 
ATOM      4  C   UNL     1      51.008  34.358  20.844  1.00  0.00     0.028 A 
ATOM      5  C   UNL     1      52.830  34.428  19.287  1.00  0.00     0.028 A 
ATOM      6  C   UNL     1      50.706  33.498  18.614  1.00  0.00     0.049 A 
ENDROOT
BRANCH   1   7
ATOM      7  N   UNL     1      53.109  35.315  21.577  1.00  0.00    -0.325 N 
ATOM      8  C   UNL     1      53.071  36.713  21.864  1.00  0.00     0.239 C 
ATOM      9  O   UNL     1      52.413  37.526  21.251  1.00  0.00    -0.274 OA
ATOM     10  H   UNL     1      53.738  34.726  22.140  1.00  0.00     0.169 HD
BRANCH   8  11
ATOM     11  C   UNL     1      54.024  37.110  22.991  1.00  0.00     0.194 C 
BRANCH  11  12
ATOM     12  C   UNL     1      53.861  36.147  24.148  1.00  0.00     0.029 C 
BRANCH  12  13
ATOM     13  C   UNL     1      53.427  36.748  25.466  1.00  0.00    -0.016 C 
ATOM     14  C   UNL     1      52.332  37.776  25.181  1.00  0.00     0.007 C 
ATOM     15  C   UNL     1      54.587  37.399  26.204  1.00  0.00     0.007 C 
ENDBRANCH  12  13
ENDBRANCH  11  12
BRANCH  11  16
ATOM     16  P   UNL     1      55.735  37.137  22.289  1.00  0.00     0.337 P 
ATOM     17  O   UNL     1      56.094  38.473  21.675  1.00  0.00    -0.260 OA
BRANCH  16  18
ATOM     18  O   UNL     1      56.652  36.719  23.460  1.00  0.00    -0.324 OA
ATOM     19  H   UNL     1      57.257  35.993  23.163  1.00  0.00     0.221 HD
ENDBRANCH  16  18
BRANCH  16  20
ATOM     20  O   UNL     1      55.823  36.098  21.193  1.00  0.00    -0.324 OA
ATOM     21  H   UNL     1      55.453  35.240  21.521  1.00  0.00     0.221 HD
ENDBRANCH  16  20
ENDBRANCH  11  16
ENDBRANCH   8  11
ENDBRANCH   1   7
BRANCH   6  22
ATOM     22  N   UNL     1      49.903  32.893  17.560  1.00  0.00    -0.280 N 
ATOM     23  H   UNL     1      50.355  32.199  16.948  1.00  0.00     0.180 HD
BRANCH  22  24
ATOM     24  S   UNL     1      48.265  33.265  17.276  1.00  0.00     0.261 S 
ATOM     25  O   UNL     1      47.324  32.572  18.168  1.00  0.00    -0.201 OA
ATOM     26  O   UNL     1      47.954  34.686  17.486  1.00  0.00    -0.201 OA
BRANCH  24  27
ATOM     27  C   UNL     1      48.022  32.764  15.560  1.00  0.00     0.089 A 
ATOM     28  C   UNL     1      49.050  32.097  14.927  1.00  0.00     0.024 A 
ATOM     29  C   UNL     1      46.820  33.017  14.927  1.00  0.00     0.044 A 
ATOM     30  C   UNL     1      48.883  31.689  13.623  1.00  0.00     0.023 A 
ATOM     31  C   UNL     1      46.646  32.606  13.620  1.00  0.00     0.061 A 
ATOM     32  C   UNL     1      47.687  31.937  12.973  1.00  0.00     0.059 A 
ATOM     33  Cl  UNL     1      45.077  32.958  12.836  1.00  0.00    -0.083 Cl
ATOM     34  Cl  UNL     1      47.566  31.366  11.293  1.00  0.00    -0.083 Cl
ENDBRANCH  24  27
ENDBRANCH  22  24
ENDBRANCH   6  22
TORSDOF 10
ENDMDL
MODEL 5
REMARK VINA RESULT:    -8.285      4.514      6.651
REMARK INTER + INTRA:         -13.560
REMARK INTER:                 -12.467
REMARK INTRA:                  -1.093
REMARK UNBOUND:                -0.915
REMARK SMILES CC(C)C[C@H](C(=O)Nc1ccc(NS(=O)(=O)c2ccc(Cl)c(Cl)c2)cc1)P(=O)(O)O
REMARK SMILES IDX 9 1 11 2 25 3 10 4 26 5 12 6 8 7 6 8 7 9 5 11 4 12 2 13 1 14
REMARK SMILES IDX 3 15 27 16 28 17 29 18 30 20 13 22 14 24 16 25 15 26 17 27
REMARK SMILES IDX 18 28 24 29 19 30 22 31 20 32 23 33 21 34
REMARK H PARENT 8 10 29 19 30 21 13 23
ROOT
ATOM      1  C   UNL     1      49.846  33.331  17.674  1.00  0.00     0.041 A 
ATOM      2  C   UNL     1      47.473  33.760  17.668  1.00  0.00     0.029 A 
ATOM      3  C   UNL     1      48.441  32.223  16.086  1.00  0.00     0.029 A 
ATOM      4  C   UNL     1      48.750  33.991  18.196  1.00  0.00     0.028 A 
ATOM      5  C   UNL     1      49.705  32.460  16.617  1.00  0.00     0.028 A 
ATOM      6  C   UNL     1      47.325  32.866  16.613  1.00  0.00     0.049 A 
ENDROOT
BRANCH   1   7
ATOM      7  N   UNL     1      51.146  33.638  18.243  1.00  0.00    -0.325 N 
ATOM      8  C   UNL     1      51.567  33.233  19.546  1.00  0.00     0.239 C 
ATOM      9  O   UNL     1      50.877  32.631  20.340  1.00  0.00    -0.274 OA
ATOM     10  H   UNL     1      51.806  34.182  17.671  1.00  0.00     0.169 HD
BRANCH   8  11
ATOM     11  C   UNL     1      52.977  33.717  19.885  1.00  0.00     0.194 C 
BRANCH  11  12
ATOM     12  C   UNL     1      53.799  33.796  18.617  1.00  0.00     0.029 C 
BRANCH  12  13
ATOM     13  C   UNL     1      54.686  32.608  18.316  1.00  0.00    -0.016 C 
ATOM     14  C   UNL     1      56.022  33.134  17.790  1.00  0.00     0.007 C 
ATOM     15  C   UNL     1      54.051  31.665  17.305  1.00  0.00     0.007 C 
ENDBRANCH  12  13
ENDBRANCH  11  12
BRANCH  11  16
ATOM     16  P   UNL     1      52.814  35.337  20.761  1.00  0.00     0.337 P 
ATOM     17  O   UNL     1      54.147  36.014  20.994  1.00  0.00    -0.260 OA
BRANCH  16  18
ATOM     18  O   UNL     1      51.836  36.162  19.895  1.00  0.00    -0.324 OA
ATOM     19  H   UNL     1      52.345  36.671  19.215  1.00  0.00     0.221 HD
ENDBRANCH  16  18
BRANCH  16  20
ATOM     20  O   UNL     1      52.190  35.091  22.118  1.00  0.00    -0.324 OA
ATOM     21  H   UNL     1      51.948  35.958  22.532  1.00  0.00     0.221 HD
ENDBRANCH  16  20
ENDBRANCH  11  16
ENDBRANCH   8  11
ENDBRANCH   1   7
BRANCH   6  22
ATOM     22  N   UNL     1      46.028  32.590  16.009  1.00  0.00    -0.280 N 
ATOM     23  H   UNL     1      45.741  31.605  15.911  1.00  0.00     0.180 HD
BRANCH  22  24
ATOM     24  S   UNL     1      44.958  33.795  15.455  1.00  0.00     0.261 S 
ATOM     25  O   UNL     1      43.589  33.676  15.979  1.00  0.00    -0.201 OA
ATOM     26  O   UNL     1      45.363  35.150  15.855  1.00  0.00    -0.201 OA
BRANCH  24  27
ATOM     27  C   UNL     1      44.989  33.578  13.664  1.00  0.00     0.089 A 
ATOM     28  C   UNL     1      44.079  34.288  12.909  1.00  0.00     0.024 A 
ATOM     29  C   UNL     1      45.930  32.751  13.082  1.00  0.00     0.044 A 
ATOM     30  C   UNL     1      44.094  34.154  11.539  1.00  0.00     0.023 A 
ATOM     31  C   UNL     1      45.952  32.616  11.708  1.00  0.00     0.061 A 
ATOM     32  C   UNL     1      45.027  33.327  10.940  1.00  0.00     0.059 A 
ATOM     33  Cl  UNL     1      47.182  31.530  10.995  1.00  0.00    -0.083 Cl
ATOM     34  Cl  UNL     1      44.970  33.223   9.165  1.00  0.00    -0.083 Cl
ENDBRANCH  24  27
ENDBRANCH  22  24
ENDBRANCH   6  22
TORSDOF 10
ENDMDL
MODEL 6
REMARK VINA RESULT:    -8.261      2.555      3.320
REMARK INTER + INTRA:         -13.523
REMARK INTER:                 -12.534
REMARK INTRA:                  -0.989
REMARK UNBOUND:                -0.915
REMARK SMILES CC(C)C[C@H](C(=O)Nc1ccc(NS(=O)(=O)c2ccc(Cl)c(Cl)c2)cc1)P(=O)(O)O
REMARK SMILES IDX 9 1 11 2 25 3 10 4 26 5 12 6 8 7 6 8 7 9 5 11 4 12 2 13 1 14
REMARK SMILES IDX 3 15 27 16 28 17 29 18 30 20 13 22 14 24 16 25 15 26 17 27
REMARK SMILES IDX 18 28 24 29 19 30 22 31 20 32 23 33 21 34
REMARK H PARENT 8 10 29 19 30 21 13 23
ROOT
ATOM      1  C   UNL     1      52.512  33.925  20.573  1.00  0.00     0.041 A 
ATOM      2  C   UNL     1      52.198  32.281  18.837  1.00  0.00     0.029 A 
ATOM      3  C   UNL     1      50.309  33.150  20.053  1.00  0.00     0.029 A 
ATOM      4  C   UNL     1      53.042  33.092  19.606  1.00  0.00     0.028 A 
ATOM      5  C   UNL     1      51.156  33.952  20.811  1.00  0.00     0.028 A 
ATOM      6  C   UNL     1      50.826  32.321  19.063  1.00  0.00     0.049 A 
ENDROOT
BRANCH   1   7
ATOM      7  N   UNL     1      53.442  34.717  21.357  1.00  0.00    -0.325 N 
ATOM      8  C   UNL     1      53.330  36.127  21.553  1.00  0.00     0.239 C 
ATOM      9  O   UNL     1      52.477  36.828  21.053  1.00  0.00    -0.274 OA
ATOM     10  H   UNL     1      54.234  34.231  21.801  1.00  0.00     0.169 HD
BRANCH   8  11
ATOM     11  C   UNL     1      54.464  36.695  22.407  1.00  0.00     0.194 C 
BRANCH  11  12
ATOM     12  C   UNL     1      55.158  37.804  21.646  1.00  0.00     0.029 C 
BRANCH  12  13
ATOM     13  C   UNL     1      56.638  37.971  21.904  1.00  0.00    -0.016 C 
ATOM     14  C   UNL     1      57.291  38.473  20.615  1.00  0.00     0.007 C 
ATOM     15  C   UNL     1      57.288  36.673  22.357  1.00  0.00     0.007 C 
ENDBRANCH  12  13
ENDBRANCH  11  12
BRANCH  11  16
ATOM     16  P   UNL     1      53.729  37.248  24.012  1.00  0.00     0.337 P 
ATOM     17  O   UNL     1      54.777  37.628  25.035  1.00  0.00    -0.260 OA
BRANCH  16  18
ATOM     18  O   UNL     1      52.773  38.401  23.635  1.00  0.00    -0.324 OA
ATOM     19  H   UNL     1      52.615  38.972  24.429  1.00  0.00     0.221 HD
ENDBRANCH  16  18
BRANCH  16  20
ATOM     20  O   UNL     1      52.925  36.105  24.593  1.00  0.00    -0.324 OA
ATOM     21  H   UNL     1      52.598  36.356  25.493  1.00  0.00     0.221 HD
ENDBRANCH  16  20
ENDBRANCH  11  16
ENDBRANCH   8  11
ENDBRANCH   1   7
BRANCH   6  22
ATOM     22  N   UNL     1      49.894  31.494  18.308  1.00  0.00    -0.280 N 
ATOM     23  H   UNL     1      49.359  30.778  18.820  1.00  0.00     0.180 HD
BRANCH  22  24
ATOM     24  S   UNL     1      49.633  31.637  16.630  1.00  0.00     0.261 S 
ATOM     25  O   UNL     1      50.677  32.389  15.917  1.00  0.00    -0.201 OA
ATOM     26  O   UNL     1      49.612  30.340  15.939  1.00  0.00    -0.201 OA
BRANCH  24  27
ATOM     27  C   UNL     1      48.043  32.483  16.533  1.00  0.00     0.089 A 
ATOM     28  C   UNL     1      47.940  33.739  17.093  1.00  0.00     0.024 A 
ATOM     29  C   UNL     1      46.980  31.889  15.879  1.00  0.00     0.044 A 
ATOM     30  C   UNL     1      46.742  34.412  17.017  1.00  0.00     0.023 A 
ATOM     31  C   UNL     1      45.777  32.562  15.796  1.00  0.00     0.061 A 
ATOM     32  C   UNL     1      45.667  33.830  16.369  1.00  0.00     0.059 A 
ATOM     33  Cl  UNL     1      44.426  31.755  14.945  1.00  0.00    -0.083 Cl
ATOM     34  Cl  UNL     1      44.164  34.781  16.318  1.00  0.00    -0.083 Cl
ENDBRANCH  24  27
ENDBRANCH  22  24
ENDBRANCH   6  22
TORSDOF 10
ENDMDL
MODEL 7
REMARK VINA RESULT:    -8.213      4.044      4.978
REMARK INTER + INTRA:         -13.450
REMARK INTER:                 -12.388
REMARK INTRA:                  -1.062
REMARK UNBOUND:                -0.915
REMARK SMILES CC(C)C[C@H](C(=O)Nc1ccc(NS(=O)(=O)c2ccc(Cl)c(Cl)c2)cc1)P(=O)(O)O
REMARK SMILES IDX 9 1 11 2 25 3 10 4 26 5 12 6 8 7 6 8 7 9 5 11 4 12 2 13 1 14
REMARK SMILES IDX 3 15 27 16 28 17 29 18 30 20 13 22 14 24 16 25 15 26 17 27
REMARK SMILES IDX 18 28 24 29 19 30 22 31 20 32 23 33 21 34
REMARK H PARENT 8 10 29 19 30 21 13 23
ROOT
ATOM      1  C   UNL     1      52.049  34.181  20.881  1.00  0.00     0.041 A 
ATOM      2  C   UNL     1      52.114  32.450  19.203  1.00  0.00     0.029 A 
ATOM      3  C   UNL     1      50.007  33.327  19.973  1.00  0.00     0.029 A 
ATOM      4  C   UNL     1      52.774  33.318  20.082  1.00  0.00     0.028 A 
ATOM      5  C   UNL     1      50.673  34.185  20.843  1.00  0.00     0.028 A 
ATOM      6  C   UNL     1      50.724  32.466  19.149  1.00  0.00     0.049 A 
ENDROOT
BRANCH   1   7
ATOM      7  N   UNL     1      52.791  35.032  21.793  1.00  0.00    -0.325 N 
ATOM      8  C   UNL     1      52.845  36.456  21.699  1.00  0.00     0.239 C 
ATOM      9  O   UNL     1      52.319  37.111  20.826  1.00  0.00    -0.274 OA
ATOM     10  H   UNL     1      53.312  34.580  22.558  1.00  0.00     0.169 HD
BRANCH   8  11
ATOM     11  C   UNL     1      53.720  37.085  22.783  1.00  0.00     0.194 C 
BRANCH  11  12
ATOM     12  C   UNL     1      53.533  36.328  24.081  1.00  0.00     0.029 C 
BRANCH  12  13
ATOM     13  C   UNL     1      53.117  37.147  25.282  1.00  0.00    -0.016 C 
ATOM     14  C   UNL     1      52.749  38.549  24.797  1.00  0.00     0.007 C 
ATOM     15  C   UNL     1      54.217  37.220  26.330  1.00  0.00     0.007 C 
ENDBRANCH  12  13
ENDBRANCH  11  12
BRANCH  11  16
ATOM     16  P   UNL     1      55.464  37.074  22.167  1.00  0.00     0.337 P 
ATOM     17  O   UNL     1      55.860  38.377  21.507  1.00  0.00    -0.260 OA
BRANCH  16  18
ATOM     18  O   UNL     1      56.320  36.711  23.401  1.00  0.00    -0.324 OA
ATOM     19  H   UNL     1      55.806  36.105  23.992  1.00  0.00     0.221 HD
ENDBRANCH  16  18
BRANCH  16  20
ATOM     20  O   UNL     1      55.601  35.982  21.128  1.00  0.00    -0.324 OA
ATOM     21  H   UNL     1      56.444  36.108  20.625  1.00  0.00     0.221 HD
ENDBRANCH  16  20
ENDBRANCH  11  16
ENDBRANCH   8  11
ENDBRANCH   1   7
BRANCH   6  22
ATOM     22  N   UNL     1      49.974  31.581  18.267  1.00  0.00    -0.280 N 
ATOM     23  H   UNL     1      48.953  31.528  18.390  1.00  0.00     0.180 HD
BRANCH  22  24
ATOM     24  S   UNL     1      50.683  30.627  17.045  1.00  0.00     0.261 S 
ATOM     25  O   UNL     1      49.787  30.320  15.921  1.00  0.00    -0.201 OA
ATOM     26  O   UNL     1      51.831  31.281  16.401  1.00  0.00    -0.201 OA
BRANCH  24  27
ATOM     27  C   UNL     1      51.163  29.127  17.924  1.00  0.00     0.089 A 
ATOM     28  C   UNL     1      50.251  28.561  18.790  1.00  0.00     0.024 A 
ATOM     29  C   UNL     1      52.399  28.553  17.694  1.00  0.00     0.044 A 
ATOM     30  C   UNL     1      50.586  27.406  19.459  1.00  0.00     0.023 A 
ATOM     31  C   UNL     1      52.739  27.392  18.359  1.00  0.00     0.061 A 
ATOM     32  C   UNL     1      51.821  26.821  19.243  1.00  0.00     0.059 A 
ATOM     33  Cl  UNL     1      54.351  26.687  18.037  1.00  0.00    -0.083 Cl
ATOM     34  Cl  UNL     1      52.160  25.328  20.149  1.00  0.00    -0.083 Cl
ENDBRANCH  24  27
ENDBRANCH  22  24
ENDBRANCH   6  22
TORSDOF 10
ENDMDL
MODEL 8
REMARK VINA RESULT:    -8.148      8.241     11.424
REMARK INTER + INTRA:         -13.350
REMARK INTER:                 -12.273
REMARK INTRA:                  -1.078
REMARK UNBOUND:                -0.915
REMARK SMILES CC(C)C[C@H](C(=O)Nc1ccc(NS(=O)(=O)c2ccc(Cl)c(Cl)c2)cc1)P(=O)(O)O
REMARK SMILES IDX 9 1 11 2 25 3 10 4 26 5 12 6 8 7 6 8 7 9 5 11 4 12 2 13 1 14
REMARK SMILES IDX 3 15 27 16 28 17 29 18 30 20 13 22 14 24 16 25 15 26 17 27
REMARK SMILES IDX 18 28 24 29 19 30 22 31 20 32 23 33 21 34
REMARK H PARENT 8 10 29 19 30 21 13 23
ROOT
ATOM      1  C   UNL     1      57.184  37.136  21.489  1.00  0.00     0.041 A 
ATOM      2  C   UNL     1      59.475  37.741  21.937  1.00  0.00     0.029 A 
ATOM      3  C   UNL     1      58.594  37.862  19.698  1.00  0.00     0.029 A 
ATOM      4  C   UNL     1      58.228  37.285  22.382  1.00  0.00     0.028 A 
ATOM      5  C   UNL     1      57.359  37.408  20.152  1.00  0.00     0.028 A 
ATOM      6  C   UNL     1      59.649  38.036  20.588  1.00  0.00     0.049 A 
ENDROOT
BRANCH   1   7
ATOM      7  N   UNL     1      55.927  36.629  22.009  1.00  0.00    -0.325 N 
ATOM      8  C   UNL     1      54.784  37.441  22.281  1.00  0.00     0.239 C 
ATOM      9  O   UNL     1      54.747  38.646  22.154  1.00  0.00    -0.274 OA
ATOM     10  H   UNL     1      55.854  35.618  22.193  1.00  0.00     0.169 HD
BRANCH   8  11
ATOM     11  C   UNL     1      53.611  36.638  22.840  1.00  0.00     0.194 C 
BRANCH  11  12
ATOM     12  C   UNL     1      52.646  37.575  23.534  1.00  0.00     0.029 C 
BRANCH  12  13
ATOM     13  C   UNL     1      52.513  37.414  25.032  1.00  0.00    -0.016 C 
ATOM     14  C   UNL     1      52.514  38.807  25.662  1.00  0.00     0.007 C 
ATOM     15  C   UNL     1      53.633  36.566  25.615  1.00  0.00     0.007 C 
ENDBRANCH  12  13
ENDBRANCH  11  12
BRANCH  11  16
ATOM     16  P   UNL     1      52.852  35.708  21.433  1.00  0.00     0.337 P 
ATOM     17  O   UNL     1      52.152  36.612  20.442  1.00  0.00    -0.260 OA
BRANCH  16  18
ATOM     18  O   UNL     1      54.013  34.891  20.823  1.00  0.00    -0.324 OA
ATOM     19  H   UNL     1      54.647  35.504  20.372  1.00  0.00     0.221 HD
ENDBRANCH  16  18
BRANCH  16  20
ATOM     20  O   UNL     1      51.813  34.757  21.988  1.00  0.00    -0.324 OA
ATOM     21  H   UNL     1      51.097  35.274  22.435  1.00  0.00     0.221 HD
ENDBRANCH  16  20
ENDBRANCH  11  16
ENDBRANCH   8  11
ENDBRANCH   1   7
BRANCH   6  22
ATOM     22  N   UNL     1      60.923  38.502  20.056  1.00  0.00    -0.280 N 
ATOM     23  H   UNL     1      60.917  38.992  19.150  1.00  0.00     0.180 HD
BRANCH  22  24
ATOM     24  S   UNL     1      62.421  38.284  20.839  1.00  0.00     0.261 S 
ATOM     25  O   UNL     1      62.556  37.000  21.542  1.00  0.00    -0.201 OA
ATOM     26  O   UNL     1      63.560  38.290  19.910  1.00  0.00    -0.201 OA
BRANCH  24  27
ATOM     27  C   UNL     1      62.483  39.668  21.995  1.00  0.00     0.089 A 
ATOM     28  C   UNL     1      62.681  39.389  23.331  1.00  0.00     0.024 A 
ATOM     29  C   UNL     1      62.371  40.965  21.532  1.00  0.00     0.044 A 
ATOM     30  C   UNL     1      62.750  40.428  24.231  1.00  0.00     0.023 A 
ATOM     31  C   UNL     1      62.443  42.011  22.430  1.00  0.00     0.061 A 
ATOM     32  C   UNL     1      62.636  41.733  23.784  1.00  0.00     0.059 A 
ATOM     33  Cl  UNL     1      62.287  43.674  21.789  1.00  0.00    -0.083 Cl
ATOM     34  Cl  UNL     1      62.743  43.006  25.022  1.00  0.00    -0.083 Cl
ENDBRANCH  24  27
ENDBRANCH  22  24
ENDBRANCH   6  22
TORSDOF 10
ENDMDL
MODEL 9
REMARK VINA RESULT:    -8.103      7.584     10.031
REMARK INTER + INTRA:         -13.281
REMARK INTER:                 -12.086
REMARK INTRA:                  -1.195
REMARK UNBOUND:                -0.915
REMARK SMILES CC(C)C[C@H](C(=O)Nc1ccc(NS(=O)(=O)c2ccc(Cl)c(Cl)c2)cc1)P(=O)(O)O
REMARK SMILES IDX 9 1 11 2 25 3 10 4 26 5 12 6 8 7 6 8 7 9 5 11 4 12 2 13 1 14
REMARK SMILES IDX 3 15 27 16 28 17 29 18 30 20 13 22 14 24 16 25 15 26 17 27
REMARK SMILES IDX 18 28 24 29 19 30 22 31 20 32 23 33 21 34
REMARK H PARENT 8 10 29 19 30 21 13 23
ROOT
ATOM      1  C   UNL     1      57.157  37.085  21.521  1.00  0.00     0.041 A 
ATOM      2  C   UNL     1      58.439  37.804  19.608  1.00  0.00     0.029 A 
ATOM      3  C   UNL     1      59.362  37.962  21.828  1.00  0.00     0.029 A 
ATOM      4  C   UNL     1      57.264  37.274  20.155  1.00  0.00     0.028 A 
ATOM      5  C   UNL     1      58.190  37.435  22.361  1.00  0.00     0.028 A 
ATOM      6  C   UNL     1      59.491  38.141  20.454  1.00  0.00     0.049 A 
ENDROOT
BRANCH   1   7
ATOM      7  N   UNL     1      55.902  36.562  22.028  1.00  0.00    -0.325 N 
ATOM      8  C   UNL     1      54.753  37.362  22.310  1.00  0.00     0.239 C 
ATOM      9  O   UNL     1      54.709  38.569  22.203  1.00  0.00    -0.274 OA
ATOM     10  H   UNL     1      55.835  35.548  22.196  1.00  0.00     0.169 HD
BRANCH   8  11
ATOM     11  C   UNL     1      53.583  36.543  22.852  1.00  0.00     0.194 C 
BRANCH  11  12
ATOM     12  C   UNL     1      52.632  37.456  23.595  1.00  0.00     0.029 C 
BRANCH  12  13
ATOM     13  C   UNL     1      52.687  37.398  25.105  1.00  0.00    -0.016 C 
ATOM     14  C   UNL     1      53.143  38.765  25.617  1.00  0.00     0.007 C 
ATOM     15  C   UNL     1      53.624  36.307  25.600  1.00  0.00     0.007 C 
ENDBRANCH  12  13
ENDBRANCH  11  12
BRANCH  11  16
ATOM     16  P   UNL     1      52.802  35.671  21.420  1.00  0.00     0.337 P 
ATOM     17  O   UNL     1      52.147  36.622  20.442  1.00  0.00    -0.260 OA
BRANCH  16  18
ATOM     18  O   UNL     1      53.937  34.823  20.804  1.00  0.00    -0.324 OA
ATOM     19  H   UNL     1      53.626  33.889  20.690  1.00  0.00     0.221 HD
ENDBRANCH  16  18
BRANCH  16  20
ATOM     20  O   UNL     1      51.723  34.751  21.946  1.00  0.00    -0.324 OA
ATOM     21  H   UNL     1      52.128  33.891  22.224  1.00  0.00     0.221 HD
ENDBRANCH  16  20
ENDBRANCH  11  16
ENDBRANCH   8  11
ENDBRANCH   1   7
BRANCH   6  22
ATOM     22  N   UNL     1      60.736  38.708  19.952  1.00  0.00    -0.280 N 
ATOM     23  H   UNL     1      61.611  38.201  20.148  1.00  0.00     0.180 HD
BRANCH  22  24
ATOM     24  S   UNL     1      60.833  40.159  19.063  1.00  0.00     0.261 S 
ATOM     25  O   UNL     1      59.560  40.885  18.948  1.00  0.00    -0.201 OA
ATOM     26  O   UNL     1      61.738  41.145  19.672  1.00  0.00    -0.201 OA
BRANCH  24  27
ATOM     27  C   UNL     1      61.418  39.610  17.447  1.00  0.00     0.089 A 
ATOM     28  C   UNL     1      62.688  39.979  17.056  1.00  0.00     0.024 A 
ATOM     29  C   UNL     1      60.616  38.812  16.654  1.00  0.00     0.044 A 
ATOM     30  C   UNL     1      63.163  39.558  15.835  1.00  0.00     0.023 A 
ATOM     31  C   UNL     1      61.090  38.384  15.430  1.00  0.00     0.061 A 
ATOM     32  C   UNL     1      62.372  38.762  15.027  1.00  0.00     0.059 A 
ATOM     33  Cl  UNL     1      60.017  37.357  14.432  1.00  0.00    -0.083 Cl
ATOM     34  Cl  UNL     1      63.076  38.265  13.471  1.00  0.00    -0.083 Cl
ENDBRANCH  24  27
ENDBRANCH  22  24
ENDBRANCH   6  22
TORSDOF 10
ENDMDL
MODEL 10
REMARK VINA RESULT:    -8.051      5.063     10.167
REMARK INTER + INTRA:         -13.202
REMARK INTER:                 -11.846
REMARK INTRA:                  -1.356
REMARK UNBOUND:                -0.915
REMARK SMILES CC(C)C[C@H](C(=O)Nc1ccc(NS(=O)(=O)c2ccc(Cl)c(Cl)c2)cc1)P(=O)(O)O
REMARK SMILES IDX 9 1 11 2 25 3 10 4 26 5 12 6 8 7 6 8 7 9 5 11 4 12 2 13 1 14
REMARK SMILES IDX 3 15 27 16 28 17 29 18 30 20 13 22 14 24 16 25 15 26 17 27
REMARK SMILES IDX 18 28 24 29 19 30 22 31 20 32 23 33 21 34
REMARK H PARENT 8 10 29 19 30 21 13 23
ROOT
ATOM      1  C   UNL     1      50.185  33.218  18.660  1.00  0.00     0.041 A 
ATOM      2  C   UNL     1      50.965  33.948  20.823  1.00  0.00     0.029 A 
ATOM      3  C   UNL     1      52.474  33.855  18.947  1.00  0.00     0.029 A 
ATOM      4  C   UNL     1      49.937  33.480  19.994  1.00  0.00     0.028 A 
ATOM      5  C   UNL     1      51.446  33.390  18.133  1.00  0.00     0.028 A 
ATOM      6  C   UNL     1      52.234  34.141  20.287  1.00  0.00     0.049 A 
ENDROOT
BRANCH   1   7
ATOM      7  N   UNL     1      49.086  32.705  17.862  1.00  0.00    -0.325 N 
ATOM      8  C   UNL     1      48.040  33.513  17.322  1.00  0.00     0.239 C 
ATOM      9  O   UNL     1      47.924  34.705  17.505  1.00  0.00    -0.274 OA
ATOM     10  H   UNL     1      49.059  31.693  17.674  1.00  0.00     0.169 HD
BRANCH   8  11
ATOM     11  C   UNL     1      47.009  32.697  16.543  1.00  0.00     0.194 C 
BRANCH  11  12
ATOM     12  C   UNL     1      46.350  33.581  15.506  1.00  0.00     0.029 C 
BRANCH  12  13
ATOM     13  C   UNL     1      44.849  33.731  15.608  1.00  0.00    -0.016 C 
ATOM     14  C   UNL     1      44.345  34.362  14.310  1.00  0.00     0.007 C 
ATOM     15  C   UNL     1      44.441  34.578  16.803  1.00  0.00     0.007 C 
ENDBRANCH  12  13
ENDBRANCH  11  12
BRANCH  11  16
ATOM     16  P   UNL     1      47.886  31.238  15.819  1.00  0.00     0.337 P 
ATOM     17  O   UNL     1      49.256  31.585  15.281  1.00  0.00    -0.260 OA
BRANCH  16  18
ATOM     18  O   UNL     1      47.905  30.185  16.949  1.00  0.00    -0.324 OA
ATOM     19  H   UNL     1      48.398  29.381  16.644  1.00  0.00     0.221 HD
ENDBRANCH  16  18
BRANCH  16  20
ATOM     20  O   UNL     1      47.067  30.709  14.661  1.00  0.00    -0.324 OA
ATOM     21  H   UNL     1      46.307  30.177  15.010  1.00  0.00     0.221 HD
ENDBRANCH  16  20
ENDBRANCH  11  16
ENDBRANCH   8  11
ENDBRANCH   1   7
BRANCH   6  22
ATOM     22  N   UNL     1      53.351  34.613  21.096  1.00  0.00    -0.280 N 
ATOM     23  H   UNL     1      54.111  33.950  21.303  1.00  0.00     0.180 HD
BRANCH  22  24
ATOM     24  S   UNL     1      53.475  36.193  21.721  1.00  0.00     0.261 S 
ATOM     25  O   UNL     1      52.488  37.138  21.179  1.00  0.00    -0.201 OA
ATOM     26  O   UNL     1      53.250  36.256  23.172  1.00  0.00    -0.201 OA
BRANCH  24  27
ATOM     27  C   UNL     1      55.154  36.679  21.274  1.00  0.00     0.089 A 
ATOM     28  C   UNL     1      55.701  37.778  21.903  1.00  0.00     0.024 A 
ATOM     29  C   UNL     1      55.869  35.937  20.354  1.00  0.00     0.044 A 
ATOM     30  C   UNL     1      56.987  38.159  21.593  1.00  0.00     0.023 A 
ATOM     31  C   UNL     1      57.161  36.313  20.042  1.00  0.00     0.061 A 
ATOM     32  C   UNL     1      57.716  37.429  20.671  1.00  0.00     0.059 A 
ATOM     33  Cl  UNL     1      58.049  35.328  18.841  1.00  0.00    -0.083 Cl
ATOM     34  Cl  UNL     1      59.369  37.996  20.340  1.00  0.00    -0.083 Cl
ENDBRANCH  24  27
ENDBRANCH  22  24
ENDBRANCH   6  22
TORSDOF 10
ENDMDL
MODEL 11
REMARK VINA RESULT:    -8.021      4.635      6.881
REMARK INTER + INTRA:         -13.156
REMARK INTER:                 -11.890
REMARK INTRA:                  -1.266
REMARK UNBOUND:                -0.915
REMARK SMILES CC(C)C[C@H](C(=O)Nc1ccc(NS(=O)(=O)c2ccc(Cl)c(Cl)c2)cc1)P(=O)(O)O
REMARK SMILES IDX 9 1 11 2 25 3 10 4 26 5 12 6 8 7 6 8 7 9 5 11 4 12 2 13 1 14
REMARK SMILES IDX 3 15 27 16 28 17 29 18 30 20 13 22 14 24 16 25 15 26 17 27
REMARK SMILES IDX 18 28 24 29 19 30 22 31 20 32 23 33 21 34
REMARK H PARENT 8 10 29 19 30 21 13 23
ROOT
ATOM      1  C   UNL     1      49.649  33.261  17.647  1.00  0.00     0.041 A 
ATOM      2  C   UNL     1      47.310  33.822  17.465  1.00  0.00     0.029 A 
ATOM      3  C   UNL     1      48.240  32.022  16.161  1.00  0.00     0.029 A 
ATOM      4  C   UNL     1      48.577  34.051  18.017  1.00  0.00     0.028 A 
ATOM      5  C   UNL     1      49.494  32.258  16.716  1.00  0.00     0.028 A 
ATOM      6  C   UNL     1      47.148  32.797  16.539  1.00  0.00     0.049 A 
ENDROOT
BRANCH   1   7
ATOM      7  N   UNL     1      50.941  33.569  18.231  1.00  0.00    -0.325 N 
ATOM      8  C   UNL     1      51.349  33.164  19.538  1.00  0.00     0.239 C 
ATOM      9  O   UNL     1      50.651  32.559  20.323  1.00  0.00    -0.274 OA
ATOM     10  H   UNL     1      51.607  34.116  17.667  1.00  0.00     0.169 HD
BRANCH   8  11
ATOM     11  C   UNL     1      52.754  33.649  19.893  1.00  0.00     0.194 C 
BRANCH  11  12
ATOM     12  C   UNL     1      53.611  33.663  18.646  1.00  0.00     0.029 C 
BRANCH  12  13
ATOM     13  C   UNL     1      54.466  32.440  18.404  1.00  0.00    -0.016 C 
ATOM     14  C   UNL     1      55.830  32.907  17.892  1.00  0.00     0.007 C 
ATOM     15  C   UNL     1      53.825  31.484  17.411  1.00  0.00     0.007 C 
ENDBRANCH  12  13
ENDBRANCH  11  12
BRANCH  11  16
ATOM     16  P   UNL     1      52.584  35.310  20.691  1.00  0.00     0.337 P 
ATOM     17  O   UNL     1      53.920  35.942  21.017  1.00  0.00    -0.260 OA
BRANCH  16  18
ATOM     18  O   UNL     1      51.723  36.136  19.710  1.00  0.00    -0.324 OA
ATOM     19  H   UNL     1      50.841  35.698  19.595  1.00  0.00     0.221 HD
ENDBRANCH  16  18
BRANCH  16  20
ATOM     20  O   UNL     1      51.833  35.144  21.994  1.00  0.00    -0.324 OA
ATOM     21  H   UNL     1      51.326  34.293  21.977  1.00  0.00     0.221 HD
ENDBRANCH  16  20
ENDBRANCH  11  16
ENDBRANCH   8  11
ENDBRANCH   1   7
BRANCH   6  22
ATOM     22  N   UNL     1      45.861  32.514  15.916  1.00  0.00    -0.280 N 
ATOM     23  H   UNL     1      45.426  31.599  16.102  1.00  0.00     0.180 HD
BRANCH  22  24
ATOM     24  S   UNL     1      45.033  33.603  14.899  1.00  0.00     0.261 S 
ATOM     25  O   UNL     1      43.621  33.807  15.254  1.00  0.00    -0.201 OA
ATOM     26  O   UNL     1      45.595  34.960  14.933  1.00  0.00    -0.201 OA
BRANCH  24  27
ATOM     27  C   UNL     1      45.192  32.843  13.271  1.00  0.00     0.089 A 
ATOM     28  C   UNL     1      45.678  31.555  13.200  1.00  0.00     0.024 A 
ATOM     29  C   UNL     1      44.796  33.535  12.142  1.00  0.00     0.044 A 
ATOM     30  C   UNL     1      45.792  30.947  11.970  1.00  0.00     0.023 A 
ATOM     31  C   UNL     1      44.905  32.928  10.906  1.00  0.00     0.061 A 
ATOM     32  C   UNL     1      45.404  31.626  10.829  1.00  0.00     0.059 A 
ATOM     33  Cl  UNL     1      44.387  33.860   9.470  1.00  0.00    -0.083 Cl
ATOM     34  Cl  UNL     1      45.584  30.755   9.289  1.00  0.00    -0.083 Cl
ENDBRANCH  24  27
ENDBRANCH  22  24
ENDBRANCH   6  22
TORSDOF 10
ENDMDL
MODEL 12
REMARK VINA RESULT:    -7.826      8.035     11.067
REMARK INTER + INTRA:         -12.858
REMARK INTER:                 -11.465
REMARK INTRA:                  -1.394
REMARK UNBOUND:                -0.915
REMARK SMILES CC(C)C[C@H](C(=O)Nc1ccc(NS(=O)(=O)c2ccc(Cl)c(Cl)c2)cc1)P(=O)(O)O
REMARK SMILES IDX 9 1 11 2 25 3 10 4 26 5 12 6 8 7 6 8 7 9 5 11 4 12 2 13 1 14
REMARK SMILES IDX 3 15 27 16 28 17 29 18 30 20 13 22 14 24 16 25 15 26 17 27
REMARK SMILES IDX 18 28 24 29 19 30 22 31 20 32 23 33 21 34
REMARK H PARENT 8 10 29 19 30 21 13 23
ROOT
ATOM      1  C   UNL     1      56.714  37.111  21.402  1.00  0.00     0.041 A 
ATOM      2  C   UNL     1      58.031  37.402  19.403  1.00  0.00     0.029 A 
ATOM      3  C   UNL     1      58.877  38.125  21.539  1.00  0.00     0.029 A 
ATOM      4  C   UNL     1      56.858  36.971  20.034  1.00  0.00     0.028 A 
ATOM      5  C   UNL     1      57.706  37.694  22.157  1.00  0.00     0.028 A 
ATOM      6  C   UNL     1      59.044  37.974  20.167  1.00  0.00     0.049 A 
ENDROOT
BRANCH   1   7
ATOM      7  N   UNL     1      55.461  36.674  21.991  1.00  0.00    -0.325 N 
ATOM      8  C   UNL     1      54.281  37.475  22.055  1.00  0.00     0.239 C 
ATOM      9  O   UNL     1      54.202  38.621  21.668  1.00  0.00    -0.274 OA
ATOM     10  H   UNL     1      55.421  35.725  22.390  1.00  0.00     0.169 HD
BRANCH   8  11
ATOM     11  C   UNL     1      53.122  36.761  22.750  1.00  0.00     0.194 C 
BRANCH  11  12
ATOM     12  C   UNL     1      52.935  35.390  22.135  1.00  0.00     0.029 C 
BRANCH  12  13
ATOM     13  C   UNL     1      52.509  35.357  20.685  1.00  0.00    -0.016 C 
ATOM     14  C   UNL     1      51.097  34.773  20.619  1.00  0.00     0.007 C 
ATOM     15  C   UNL     1      53.463  34.537  19.830  1.00  0.00     0.007 C 
ENDBRANCH  12  13
ENDBRANCH  11  12
BRANCH  11  16
ATOM     16  P   UNL     1      53.502  36.713  24.559  1.00  0.00     0.337 P 
ATOM     17  O   UNL     1      52.475  37.447  25.393  1.00  0.00    -0.260 OA
BRANCH  16  18
ATOM     18  O   UNL     1      53.629  35.212  24.900  1.00  0.00    -0.324 OA
ATOM     19  H   UNL     1      53.726  34.690  24.064  1.00  0.00     0.221 HD
ENDBRANCH  16  18
BRANCH  16  20
ATOM     20  O   UNL     1      54.837  37.389  24.789  1.00  0.00    -0.324 OA
ATOM     21  H   UNL     1      54.689  38.294  25.163  1.00  0.00     0.221 HD
ENDBRANCH  16  20
ENDBRANCH  11  16
ENDBRANCH   8  11
ENDBRANCH   1   7
BRANCH   6  22
ATOM     22  N   UNL     1      60.284  38.454  19.572  1.00  0.00    -0.280 N 
ATOM     23  H   UNL     1      61.122  37.863  19.660  1.00  0.00     0.180 HD
BRANCH  22  24
ATOM     24  S   UNL     1      60.432  39.934  18.739  1.00  0.00     0.261 S 
ATOM     25  O   UNL     1      61.323  39.884  17.570  1.00  0.00    -0.201 OA
ATOM     26  O   UNL     1      59.158  40.408  18.180  1.00  0.00    -0.201 OA
BRANCH  24  27
ATOM     27  C   UNL     1      61.076  41.051  20.000  1.00  0.00     0.089 A 
ATOM     28  C   UNL     1      60.409  42.238  20.218  1.00  0.00     0.024 A 
ATOM     29  C   UNL     1      62.184  40.693  20.744  1.00  0.00     0.044 A 
ATOM     30  C   UNL     1      60.869  43.100  21.187  1.00  0.00     0.023 A 
ATOM     31  C   UNL     1      62.648  41.552  21.721  1.00  0.00     0.061 A 
ATOM     32  C   UNL     1      61.980  42.758  21.938  1.00  0.00     0.059 A 
ATOM     33  Cl  UNL     1      64.089  41.053  22.655  1.00  0.00    -0.083 Cl
ATOM     34  Cl  UNL     1      62.496  43.934  23.170  1.00  0.00    -0.083 Cl
ENDBRANCH  24  27
ENDBRANCH  22  24
ENDBRANCH   6  22
TORSDOF 10
ENDMDL
MODEL 13
REMARK VINA RESULT:    -7.786      2.486      3.472
REMARK INTER + INTRA:         -12.798
REMARK INTER:                 -11.640
REMARK INTRA:                  -1.158
REMARK UNBOUND:                -0.915
REMARK SMILES CC(C)C[C@H](C(=O)Nc1ccc(NS(=O)(=O)c2ccc(Cl)c(Cl)c2)cc1)P(=O)(O)O
REMARK SMILES IDX 9 1 11 2 25 3 10 4 26 5 12 6 8 7 6 8 7 9 5 11 4 12 2 13 1 14
REMARK SMILES IDX 3 15 27 16 28 17 29 18 30 20 13 22 14 24 16 25 15 26 17 27
REMARK SMILES IDX 18 28 24 29 19 30 22 31 20 32 23 33 21 34
REMARK H PARENT 8 10 29 19 30 21 13 23
ROOT
ATOM      1  C   UNL     1      52.362  34.345  20.793  1.00  0.00     0.041 A 
ATOM      2  C   UNL     1      52.412  32.847  18.904  1.00  0.00     0.029 A 
ATOM      3  C   UNL     1      50.355  33.247  20.092  1.00  0.00     0.029 A 
ATOM      4  C   UNL     1      53.068  33.716  19.784  1.00  0.00     0.028 A 
ATOM      5  C   UNL     1      51.016  34.109  20.962  1.00  0.00     0.028 A 
ATOM      6  C   UNL     1      51.048  32.622  19.060  1.00  0.00     0.049 A 
ENDROOT
BRANCH   1   7
ATOM      7  N   UNL     1      53.106  35.209  21.692  1.00  0.00    -0.325 N 
ATOM      8  C   UNL     1      53.011  36.633  21.698  1.00  0.00     0.239 C 
ATOM      9  O   UNL     1      52.338  37.284  20.929  1.00  0.00    -0.274 OA
ATOM     10  H   UNL     1      53.743  34.766  22.369  1.00  0.00     0.169 HD
BRANCH   8  11
ATOM     11  C   UNL     1      53.925  37.280  22.739  1.00  0.00     0.194 C 
BRANCH  11  12
ATOM     12  C   UNL     1      53.699  36.622  24.083  1.00  0.00     0.029 C 
BRANCH  12  13
ATOM     13  C   UNL     1      53.623  37.546  25.278  1.00  0.00    -0.016 C 
ATOM     14  C   UNL     1      54.323  36.861  26.453  1.00  0.00     0.007 C 
ATOM     15  C   UNL     1      52.187  37.889  25.643  1.00  0.00     0.007 C 
ENDBRANCH  12  13
ENDBRANCH  11  12
BRANCH  11  16
ATOM     16  P   UNL     1      55.663  37.126  22.125  1.00  0.00     0.337 P 
ATOM     17  O   UNL     1      56.187  38.411  21.522  1.00  0.00    -0.260 OA
BRANCH  16  18
ATOM     18  O   UNL     1      56.473  36.630  23.344  1.00  0.00    -0.324 OA
ATOM     19  H   UNL     1      57.382  37.021  23.317  1.00  0.00     0.221 HD
ENDBRANCH  16  18
BRANCH  16  20
ATOM     20  O   UNL     1      55.699  36.070  21.041  1.00  0.00    -0.324 OA
ATOM     21  H   UNL     1      54.929  35.457  21.151  1.00  0.00     0.221 HD
ENDBRANCH  16  20
ENDBRANCH  11  16
ENDBRANCH   8  11
ENDBRANCH   1   7
BRANCH   6  22
ATOM     22  N   UNL     1      50.308  31.720  18.188  1.00  0.00    -0.280 N 
ATOM     23  H   UNL     1      50.488  30.709  18.273  1.00  0.00     0.180 HD
BRANCH  22  24
ATOM     24  S   UNL     1      49.163  32.234  17.034  1.00  0.00     0.261 S 
ATOM     25  O   UNL     1      47.893  31.495  17.071  1.00  0.00    -0.201 OA
ATOM     26  O   UNL     1      48.752  33.633  17.218  1.00  0.00    -0.201 OA
BRANCH  24  27
ATOM     27  C   UNL     1      50.018  31.979  15.467  1.00  0.00     0.089 A 
ATOM     28  C   UNL     1      51.394  31.893  15.484  1.00  0.00     0.024 A 
ATOM     29  C   UNL     1      49.296  31.839  14.297  1.00  0.00     0.044 A 
ATOM     30  C   UNL     1      52.069  31.681  14.304  1.00  0.00     0.023 A 
ATOM     31  C   UNL     1      49.968  31.622  13.110  1.00  0.00     0.061 A 
ATOM     32  C   UNL     1      51.361  31.542  13.123  1.00  0.00     0.059 A 
ATOM     33  Cl  UNL     1      48.994  31.452  11.619  1.00  0.00    -0.083 Cl
ATOM     34  Cl  UNL     1      52.322  31.266  11.651  1.00  0.00    -0.083 Cl
ENDBRANCH  24  27
ENDBRANCH  22  24
ENDBRANCH   6  22
TORSDOF 10
ENDMDL
MODEL 14
REMARK VINA RESULT:    -7.737      5.371     10.365
REMARK INTER + INTRA:         -12.723
REMARK INTER:                 -11.653
REMARK INTRA:                  -1.070
REMARK UNBOUND:                -0.915
REMARK SMILES CC(C)C[C@H](C(=O)Nc1ccc(NS(=O)(=O)c2ccc(Cl)c(Cl)c2)cc1)P(=O)(O)O
REMARK SMILES IDX 9 1 11 2 25 3 10 4 26 5 12 6 8 7 6 8 7 9 5 11 4 12 2 13 1 14
REMARK SMILES IDX 3 15 27 16 28 17 29 18 30 20 13 22 14 24 16 25 15 26 17 27
REMARK SMILES IDX 18 28 24 29 19 30 22 31 20 32 23 33 21 34
REMARK H PARENT 8 10 29 19 30 21 13 23
ROOT
ATOM      1  C   UNL     1      50.180  33.280  18.443  1.00  0.00     0.041 A 
ATOM      2  C   UNL     1      50.898  33.802  20.686  1.00  0.00     0.029 A 
ATOM      3  C   UNL     1      52.429  33.994  18.836  1.00  0.00     0.029 A 
ATOM      4  C   UNL     1      49.904  33.379  19.794  1.00  0.00     0.028 A 
ATOM      5  C   UNL     1      51.435  33.571  17.959  1.00  0.00     0.028 A 
ATOM      6  C   UNL     1      52.161  34.116  20.196  1.00  0.00     0.049 A 
ENDROOT
BRANCH   1   7
ATOM      7  N   UNL     1      49.117  32.804  17.576  1.00  0.00    -0.325 N 
ATOM      8  C   UNL     1      48.032  33.612  17.119  1.00  0.00     0.239 C 
ATOM      9  O   UNL     1      47.848  34.767  17.437  1.00  0.00    -0.274 OA
ATOM     10  H   UNL     1      49.147  31.821  17.272  1.00  0.00     0.169 HD
BRANCH   8  11
ATOM     11  C   UNL     1      47.053  32.838  16.236  1.00  0.00     0.194 C 
BRANCH  11  12
ATOM     12  C   UNL     1      46.816  31.467  16.832  1.00  0.00     0.029 C 
BRANCH  12  13
ATOM     13  C   UNL     1      47.248  30.285  15.994  1.00  0.00    -0.016 C 
ATOM     14  C   UNL     1      46.950  30.608  14.529  1.00  0.00     0.007 C 
ATOM     15  C   UNL     1      46.544  29.003  16.409  1.00  0.00     0.007 C 
ENDBRANCH  12  13
ENDBRANCH  11  12
BRANCH  11  16
ATOM     16  P   UNL     1      45.515  33.854  16.086  1.00  0.00     0.337 P 
ATOM     17  O   UNL     1      45.657  34.987  15.093  1.00  0.00    -0.260 OA
BRANCH  16  18
ATOM     18  O   UNL     1      44.404  32.843  15.728  1.00  0.00    -0.324 OA
ATOM     19  H   UNL     1      44.201  32.902  14.761  1.00  0.00     0.221 HD
ENDBRANCH  16  18
BRANCH  16  20
ATOM     20  O   UNL     1      45.212  34.471  17.434  1.00  0.00    -0.324 OA
ATOM     21  H   UNL     1      44.897  33.767  18.056  1.00  0.00     0.221 HD
ENDBRANCH  16  20
ENDBRANCH  11  16
ENDBRANCH   8  11
ENDBRANCH   1   7
BRANCH   6  22
ATOM     22  N   UNL     1      53.243  34.550  21.070  1.00  0.00    -0.280 N 
ATOM     23  H   UNL     1      53.962  33.859  21.329  1.00  0.00     0.180 HD
BRANCH  22  24
ATOM     24  S   UNL     1      53.393  36.131  21.690  1.00  0.00     0.261 S 
ATOM     25  O   UNL     1      52.408  37.085  21.161  1.00  0.00    -0.201 OA
ATOM     26  O   UNL     1      53.190  36.198  23.144  1.00  0.00    -0.201 OA
BRANCH  24  27
ATOM     27  C   UNL     1      55.070  36.599  21.218  1.00  0.00     0.089 A 
ATOM     28  C   UNL     1      55.644  37.683  21.848  1.00  0.00     0.024 A 
ATOM     29  C   UNL     1      55.758  35.857  20.277  1.00  0.00     0.044 A 
ATOM     30  C   UNL     1      56.929  38.049  21.518  1.00  0.00     0.023 A 
ATOM     31  C   UNL     1      57.049  36.218  19.945  1.00  0.00     0.061 A 
ATOM     32  C   UNL     1      57.631  37.320  20.576  1.00  0.00     0.059 A 
ATOM     33  Cl  UNL     1      57.902  35.235  18.717  1.00  0.00    -0.083 Cl
ATOM     34  Cl  UNL     1      59.286  37.868  20.221  1.00  0.00    -0.083 Cl
ENDBRANCH  24  27
ENDBRANCH  22  24
ENDBRANCH   6  22
TORSDOF 10
ENDMDL
MODEL 15
REMARK VINA RESULT:    -7.698      5.480     10.520
REMARK INTER + INTRA:         -12.664
REMARK INTER:                 -11.445
REMARK INTRA:                  -1.219
REMARK UNBOUND:                -0.915
REMARK SMILES CC(C)C[C@H](C(=O)Nc1ccc(NS(=O)(=O)c2ccc(Cl)c(Cl)c2)cc1)P(=O)(O)O
REMARK SMILES IDX 9 1 11 2 25 3 10 4 26 5 12 6 8 7 6 8 7 9 5 11 4 12 2 13 1 14
REMARK SMILES IDX 3 15 27 16 28 17 29 18 30 20 13 22 14 24 16 25 15 26 17 27
REMARK SMILES IDX 18 28 24 29 19 30 22 31 20 32 23 33 21 34
REMARK H PARENT 8 10 29 19 30 21 13 23
ROOT
ATOM      1  C   UNL     1      48.262  32.804  17.522  1.00  0.00     0.041 A 
ATOM      2  C   UNL     1      49.871  34.006  18.859  1.00  0.00     0.029 A 
ATOM      3  C   UNL     1      50.284  31.723  18.208  1.00  0.00     0.029 A 
ATOM      4  C   UNL     1      48.645  33.956  18.183  1.00  0.00     0.028 A 
ATOM      5  C   UNL     1      49.064  31.685  17.540  1.00  0.00     0.028 A 
ATOM      6  C   UNL     1      50.692  32.882  18.861  1.00  0.00     0.049 A 
ENDROOT
BRANCH   1   7
ATOM      7  N   UNL     1      46.967  32.807  16.868  1.00  0.00    -0.325 N 
ATOM      8  C   UNL     1      46.782  32.843  15.452  1.00  0.00     0.239 C 
ATOM      9  O   UNL     1      47.679  32.923  14.641  1.00  0.00    -0.274 OA
ATOM     10  H   UNL     1      46.126  32.780  17.462  1.00  0.00     0.169 HD
BRANCH   8  11
ATOM     11  C   UNL     1      45.308  32.858  15.051  1.00  0.00     0.194 C 
BRANCH  11  12
ATOM     12  C   UNL     1      44.705  31.493  15.304  1.00  0.00     0.029 C 
BRANCH  12  13
ATOM     13  C   UNL     1      45.641  30.312  15.179  1.00  0.00    -0.016 C 
ATOM     14  C   UNL     1      45.434  29.685  13.799  1.00  0.00     0.007 C 
ATOM     15  C   UNL     1      45.405  29.280  16.271  1.00  0.00     0.007 C 
ENDBRANCH  12  13
ENDBRANCH  11  12
BRANCH  11  16
ATOM     16  P   UNL     1      44.486  34.215  16.002  1.00  0.00     0.337 P 
ATOM     17  O   UNL     1      45.474  35.172  16.631  1.00  0.00    -0.260 OA
BRANCH  16  18
ATOM     18  O   UNL     1      43.524  34.881  14.993  1.00  0.00    -0.324 OA
ATOM     19  H   UNL     1      44.044  35.262  14.242  1.00  0.00     0.221 HD
ENDBRANCH  16  18
BRANCH  16  20
ATOM     20  O   UNL     1      43.679  33.597  17.124  1.00  0.00    -0.324 OA
ATOM     21  H   UNL     1      43.837  34.102  17.961  1.00  0.00     0.221 HD
ENDBRANCH  16  20
ENDBRANCH  11  16
ENDBRANCH   8  11
ENDBRANCH   1   7
BRANCH   6  22
ATOM     22  N   UNL     1      51.972  32.862  19.556  1.00  0.00    -0.280 N 
ATOM     23  H   UNL     1      52.080  32.216  20.351  1.00  0.00     0.180 HD
BRANCH  22  24
ATOM     24  S   UNL     1      53.302  33.840  19.134  1.00  0.00     0.261 S 
ATOM     25  O   UNL     1      54.582  33.121  19.057  1.00  0.00    -0.201 OA
ATOM     26  O   UNL     1      53.168  34.448  17.803  1.00  0.00    -0.201 OA
BRANCH  24  27
ATOM     27  C   UNL     1      53.330  35.079  20.445  1.00  0.00     0.089 A 
ATOM     28  C   UNL     1      52.167  35.306  21.149  1.00  0.00     0.024 A 
ATOM     29  C   UNL     1      54.503  35.745  20.745  1.00  0.00     0.044 A 
ATOM     30  C   UNL     1      52.167  36.234  22.166  1.00  0.00     0.023 A 
ATOM     31  C   UNL     1      54.510  36.674  21.767  1.00  0.00     0.061 A 
ATOM     32  C   UNL     1      53.332  36.912  22.477  1.00  0.00     0.059 A 
ATOM     33  Cl  UNL     1      56.048  37.517  22.119  1.00  0.00    -0.083 Cl
ATOM     34  Cl  UNL     1      53.233  38.087  23.809  1.00  0.00    -0.083 Cl
ENDBRANCH  24  27
ENDBRANCH  22  24
ENDBRANCH   6  22
TORSDOF 10
ENDMDL
MODEL 16
REMARK VINA RESULT:    -7.666      7.936     10.636
REMARK INTER + INTRA:         -12.614
REMARK INTER:                 -11.491
REMARK INTRA:                  -1.123
REMARK UNBOUND:                -0.915
REMARK SMILES CC(C)C[C@H](C(=O)Nc1ccc(NS(=O)(=O)c2ccc(Cl)c(Cl)c2)cc1)P(=O)(O)O
REMARK SMILES IDX 9 1 11 2 25 3 10 4 26 5 12 6 8 7 6 8 7 9 5 11 4 12 2 13 1 14
REMARK SMILES IDX 3 15 27 16 28 17 29 18 30 20 13 22 14 24 16 25 15 26 17 27
REMARK SMILES IDX 18 28 24 29 19 30 22 31 20 32 23 33 21 34
REMARK H PARENT 8 10 29 19 30 21 13 23
ROOT
ATOM      1  C   UNL     1      57.422  36.674  21.192  1.00  0.00     0.041 A 
ATOM      2  C   UNL     1      59.768  37.150  21.484  1.00  0.00     0.029 A 
ATOM      3  C   UNL     1      58.837  36.904  19.276  1.00  0.00     0.029 A 
ATOM      4  C   UNL     1      58.501  36.904  22.026  1.00  0.00     0.028 A 
ATOM      5  C   UNL     1      57.581  36.660  19.825  1.00  0.00     0.028 A 
ATOM      6  C   UNL     1      59.928  37.156  20.102  1.00  0.00     0.049 A 
ENDROOT
BRANCH   1   7
ATOM      7  N   UNL     1      56.142  36.393  21.816  1.00  0.00    -0.325 N 
ATOM      8  C   UNL     1      55.138  37.377  22.067  1.00  0.00     0.239 C 
ATOM      9  O   UNL     1      55.256  38.560  21.831  1.00  0.00    -0.274 OA
ATOM     10  H   UNL     1      55.945  35.422  22.096  1.00  0.00     0.169 HD
BRANCH   8  11
ATOM     11  C   UNL     1      53.902  36.795  22.754  1.00  0.00     0.194 C 
BRANCH  11  12
ATOM     12  C   UNL     1      53.089  37.919  23.359  1.00  0.00     0.029 C 
BRANCH  12  13
ATOM     13  C   UNL     1      52.596  37.706  24.773  1.00  0.00    -0.016 C 
ATOM     14  C   UNL     1      52.574  39.063  25.478  1.00  0.00     0.007 C 
ATOM     15  C   UNL     1      53.469  36.724  25.538  1.00  0.00     0.007 C 
ENDBRANCH  12  13
ENDBRANCH  11  12
BRANCH  11  16
ATOM     16  P   UNL     1      52.976  35.810  21.492  1.00  0.00     0.337 P 
ATOM     17  O   UNL     1      52.193  36.678  20.531  1.00  0.00    -0.260 OA
BRANCH  16  18
ATOM     18  O   UNL     1      54.046  34.929  20.811  1.00  0.00    -0.324 OA
ATOM     19  H   UNL     1      53.603  34.187  20.326  1.00  0.00     0.221 HD
ENDBRANCH  16  18
BRANCH  16  20
ATOM     20  O   UNL     1      51.982  34.922  22.209  1.00  0.00    -0.324 OA
ATOM     21  H   UNL     1      51.085  35.339  22.180  1.00  0.00     0.221 HD
ENDBRANCH  16  20
ENDBRANCH  11  16
ENDBRANCH   8  11
ENDBRANCH   1   7
BRANCH   6  22
ATOM     22  N   UNL     1      61.221  37.392  19.473  1.00  0.00    -0.280 N 
ATOM     23  H   UNL     1      61.992  36.748  19.700  1.00  0.00     0.180 HD
BRANCH  22  24
ATOM     24  S   UNL     1      61.535  38.668  18.388  1.00  0.00     0.261 S 
ATOM     25  O   UNL     1      62.777  38.514  17.616  1.00  0.00    -0.201 OA
ATOM     26  O   UNL     1      60.501  38.808  17.352  1.00  0.00    -0.201 OA
BRANCH  24  27
ATOM     27  C   UNL     1      61.615  40.112  19.466  1.00  0.00     0.089 A 
ATOM     28  C   UNL     1      62.848  40.491  19.954  1.00  0.00     0.024 A 
ATOM     29  C   UNL     1      60.468  40.828  19.752  1.00  0.00     0.044 A 
ATOM     30  C   UNL     1      62.938  41.600  20.764  1.00  0.00     0.023 A 
ATOM     31  C   UNL     1      60.553  41.944  20.561  1.00  0.00     0.061 A 
ATOM     32  C   UNL     1      61.799  42.326  21.064  1.00  0.00     0.059 A 
ATOM     33  Cl  UNL     1      59.044  42.838  20.912  1.00  0.00    -0.083 Cl
ATOM     34  Cl  UNL     1      62.018  43.746  22.114  1.00  0.00    -0.083 Cl
ENDBRANCH  24  27
ENDBRANCH  22  24
ENDBRANCH   6  22
TORSDOF 10
ENDMDL
MODEL 17
REMARK VINA RESULT:    -7.648      7.111      9.137
REMARK INTER + INTRA:         -12.587
REMARK INTER:                 -11.542
REMARK INTRA:                  -1.045
REMARK UNBOUND:                -0.915
REMARK SMILES CC(C)C[C@H](C(=O)Nc1ccc(NS(=O)(=O)c2ccc(Cl)c(Cl)c2)cc1)P(=O)(O)O
REMARK SMILES IDX 9 1 11 2 25 3 10 4 26 5 12 6 8 7 6 8 7 9 5 11 4 12 2 13 1 14
REMARK SMILES IDX 3 15 27 16 28 17 29 18 30 20 13 22 14 24 16 25 15 26 17 27
REMARK SMILES IDX 18 28 24 29 19 30 22 31 20 32 23 33 21 34
REMARK H PARENT 8 10 29 19 30 21 13 23
ROOT
ATOM      1  C   UNL     1      56.805  36.762  20.802  1.00  0.00     0.041 A 
ATOM      2  C   UNL     1      57.995  36.738  18.704  1.00  0.00     0.029 A 
ATOM      3  C   UNL     1      58.926  37.857  20.624  1.00  0.00     0.029 A 
ATOM      4  C   UNL     1      56.879  36.388  19.473  1.00  0.00     0.028 A 
ATOM      5  C   UNL     1      57.812  37.503  21.379  1.00  0.00     0.028 A 
ATOM      6  C   UNL     1      59.023  37.470  19.291  1.00  0.00     0.049 A 
ENDROOT
BRANCH   1   7
ATOM      7  N   UNL     1      55.608  36.395  21.535  1.00  0.00    -0.325 N 
ATOM      8  C   UNL     1      54.695  37.334  22.105  1.00  0.00     0.239 C 
ATOM      9  O   UNL     1      54.838  38.538  22.082  1.00  0.00    -0.274 OA
ATOM     10  H   UNL     1      55.403  35.393  21.653  1.00  0.00     0.169 HD
BRANCH   8  11
ATOM     11  C   UNL     1      53.536  36.659  22.837  1.00  0.00     0.194 C 
BRANCH  11  12
ATOM     12  C   UNL     1      52.805  37.686  23.675  1.00  0.00     0.029 C 
BRANCH  12  13
ATOM     13  C   UNL     1      53.149  37.720  25.147  1.00  0.00    -0.016 C 
ATOM     14  C   UNL     1      53.504  36.298  25.585  1.00  0.00     0.007 C 
ATOM     15  C   UNL     1      52.003  38.263  25.987  1.00  0.00     0.007 C 
ENDBRANCH  12  13
ENDBRANCH  11  12
BRANCH  11  16
ATOM     16  P   UNL     1      52.468  35.850  21.562  1.00  0.00     0.337 P 
ATOM     17  O   UNL     1      52.451  36.603  20.250  1.00  0.00    -0.260 OA
BRANCH  16  18
ATOM     18  O   UNL     1      53.006  34.406  21.450  1.00  0.00    -0.324 OA
ATOM     19  H   UNL     1      53.543  34.190  22.253  1.00  0.00     0.221 HD
ENDBRANCH  16  18
BRANCH  16  20
ATOM     20  O   UNL     1      51.046  35.812  22.079  1.00  0.00    -0.324 OA
ATOM     21  H   UNL     1      50.700  34.886  22.025  1.00  0.00     0.221 HD
ENDBRANCH  16  20
ENDBRANCH  11  16
ENDBRANCH   8  11
ENDBRANCH   1   7
BRANCH   6  22
ATOM     22  N   UNL     1      60.205  37.879  18.545  1.00  0.00    -0.280 N 
ATOM     23  H   UNL     1      61.082  37.364  18.709  1.00  0.00     0.180 HD
BRANCH  22  24
ATOM     24  S   UNL     1      60.228  39.157  17.417  1.00  0.00     0.261 S 
ATOM     25  O   UNL     1      59.072  40.061  17.503  1.00  0.00    -0.201 OA
ATOM     26  O   UNL     1      61.379  40.054  17.589  1.00  0.00    -0.201 OA
BRANCH  24  27
ATOM     27  C   UNL     1      60.267  38.301  15.829  1.00  0.00     0.089 A 
ATOM     28  C   UNL     1      59.897  36.973  15.798  1.00  0.00     0.024 A 
ATOM     29  C   UNL     1      60.624  38.984  14.682  1.00  0.00     0.044 A 
ATOM     30  C   UNL     1      59.901  36.303  14.596  1.00  0.00     0.023 A 
ATOM     31  C   UNL     1      60.626  38.317  13.473  1.00  0.00     0.061 A 
ATOM     32  C   UNL     1      60.259  36.970  13.439  1.00  0.00     0.059 A 
ATOM     33  Cl  UNL     1      61.100  39.236  12.013  1.00  0.00    -0.083 Cl
ATOM     34  Cl  UNL     1      60.230  36.020  11.935  1.00  0.00    -0.083 Cl
ENDBRANCH  24  27
ENDBRANCH  22  24
ENDBRANCH   6  22
TORSDOF 10
ENDMDL
MODEL 18
REMARK VINA RESULT:    -7.645      7.759     10.274
REMARK INTER + INTRA:         -12.582
REMARK INTER:                 -11.484
REMARK INTRA:                  -1.098
REMARK UNBOUND:                -0.915
REMARK SMILES CC(C)C[C@H](C(=O)Nc1ccc(NS(=O)(=O)c2ccc(Cl)c(Cl)c2)cc1)P(=O)(O)O
REMARK SMILES IDX 9 1 11 2 25 3 10 4 26 5 12 6 8 7 6 8 7 9 5 11 4 12 2 13 1 14
REMARK SMILES IDX 3 15 27 16 28 17 29 18 30 20 13 22 14 24 16 25 15 26 17 27
REMARK SMILES IDX 18 28 24 29 19 30 22 31 20 32 23 33 21 34
REMARK H PARENT 8 10 29 19 30 21 13 23
ROOT
ATOM      1  C   UNL     1      57.167  37.191  21.822  1.00  0.00     0.041 A 
ATOM      2  C   UNL     1      59.495  37.585  22.313  1.00  0.00     0.029 A 
ATOM      3  C   UNL     1      58.574  38.212  20.178  1.00  0.00     0.029 A 
ATOM      4  C   UNL     1      58.236  37.103  22.693  1.00  0.00     0.028 A 
ATOM      5  C   UNL     1      57.327  37.729  20.565  1.00  0.00     0.028 A 
ATOM      6  C   UNL     1      59.655  38.147  21.050  1.00  0.00     0.049 A 
ENDROOT
BRANCH   1   7
ATOM      7  N   UNL     1      55.897  36.645  22.264  1.00  0.00    -0.325 N 
ATOM      8  C   UNL     1      54.703  37.412  22.422  1.00  0.00     0.239 C 
ATOM      9  O   UNL     1      54.625  38.610  22.251  1.00  0.00    -0.274 OA
ATOM     10  H   UNL     1      55.853  35.638  22.478  1.00  0.00     0.169 HD
BRANCH   8  11
ATOM     11  C   UNL     1      53.526  36.575  22.920  1.00  0.00     0.194 C 
BRANCH  11  12
ATOM     12  C   UNL     1      52.531  37.474  23.622  1.00  0.00     0.029 C 
BRANCH  12  13
ATOM     13  C   UNL     1      52.504  37.396  25.132  1.00  0.00    -0.016 C 
ATOM     14  C   UNL     1      52.586  38.820  25.683  1.00  0.00     0.007 C 
ATOM     15  C   UNL     1      53.642  36.549  25.679  1.00  0.00     0.007 C 
ENDBRANCH  12  13
ENDBRANCH  11  12
BRANCH  11  16
ATOM     16  P   UNL     1      52.817  35.688  21.461  1.00  0.00     0.337 P 
ATOM     17  O   UNL     1      52.169  36.624  20.464  1.00  0.00    -0.260 OA
BRANCH  16  18
ATOM     18  O   UNL     1      53.993  34.871  20.881  1.00  0.00    -0.324 OA
ATOM     19  H   UNL     1      54.652  35.487  20.471  1.00  0.00     0.221 HD
ENDBRANCH  16  18
BRANCH  16  20
ATOM     20  O   UNL     1      51.745  34.737  21.949  1.00  0.00    -0.324 OA
ATOM     21  H   UNL     1      51.017  35.252  22.378  1.00  0.00     0.221 HD
ENDBRANCH  16  20
ENDBRANCH  11  16
ENDBRANCH   8  11
ENDBRANCH   1   7
BRANCH   6  22
ATOM     22  N   UNL     1      60.939  38.656  20.587  1.00  0.00    -0.280 N 
ATOM     23  H   UNL     1      61.121  39.665  20.681  1.00  0.00     0.180 HD
BRANCH  22  24
ATOM     24  S   UNL     1      62.158  37.684  19.899  1.00  0.00     0.261 S 
ATOM     25  O   UNL     1      63.410  37.646  20.670  1.00  0.00    -0.201 OA
ATOM     26  O   UNL     1      61.775  36.268  19.798  1.00  0.00    -0.201 OA
BRANCH  24  27
ATOM     27  C   UNL     1      62.415  38.434  18.279  1.00  0.00     0.089 A 
ATOM     28  C   UNL     1      63.622  39.054  18.034  1.00  0.00     0.024 A 
ATOM     29  C   UNL     1      61.433  38.347  17.311  1.00  0.00     0.044 A 
ATOM     30  C   UNL     1      63.849  39.618  16.800  1.00  0.00     0.023 A 
ATOM     31  C   UNL     1      61.657  38.908  16.069  1.00  0.00     0.061 A 
ATOM     32  C   UNL     1      62.875  39.543  15.820  1.00  0.00     0.059 A 
ATOM     33  Cl  UNL     1      60.357  38.778  14.847  1.00  0.00    -0.083 Cl
ATOM     34  Cl  UNL     1      63.264  40.298  14.257  1.00  0.00    -0.083 Cl
ENDBRANCH  24  27
ENDBRANCH  22  24
ENDBRANCH   6  22
TORSDOF 10
ENDMDL
MODEL 19
REMARK VINA RESULT:    -7.550      6.724      9.372
REMARK INTER + INTRA:         -12.437
REMARK INTER:                 -11.262
REMARK INTRA:                  -1.175
REMARK UNBOUND:                -0.915
REMARK SMILES CC(C)C[C@H](C(=O)Nc1ccc(NS(=O)(=O)c2ccc(Cl)c(Cl)c2)cc1)P(=O)(O)O
REMARK SMILES IDX 9 1 11 2 25 3 10 4 26 5 12 6 8 7 6 8 7 9 5 11 4 12 2 13 1 14
REMARK SMILES IDX 3 15 27 16 28 17 29 18 30 20 13 22 14 24 16 25 15 26 17 27
REMARK SMILES IDX 18 28 24 29 19 30 22 31 20 32 23 33 21 34
REMARK H PARENT 8 10 29 19 30 21 13 23
ROOT
ATOM      1  C   UNL     1      57.276  37.294  22.145  1.00  0.00     0.041 A 
ATOM      2  C   UNL     1      59.663  37.217  22.486  1.00  0.00     0.029 A 
ATOM      3  C   UNL     1      58.710  38.700  20.845  1.00  0.00     0.029 A 
ATOM      4  C   UNL     1      58.374  36.767  22.800  1.00  0.00     0.028 A 
ATOM      5  C   UNL     1      57.434  38.246  21.164  1.00  0.00     0.028 A 
ATOM      6  C   UNL     1      59.823  38.194  21.508  1.00  0.00     0.049 A 
ENDROOT
BRANCH   1   7
ATOM      7  N   UNL     1      55.971  36.762  22.493  1.00  0.00    -0.325 N 
ATOM      8  C   UNL     1      54.795  37.557  22.647  1.00  0.00     0.239 C 
ATOM      9  O   UNL     1      54.760  38.765  22.550  1.00  0.00    -0.274 OA
ATOM     10  H   UNL     1      55.888  35.746  22.639  1.00  0.00     0.169 HD
BRANCH   8  11
ATOM     11  C   UNL     1      53.571  36.729  23.036  1.00  0.00     0.194 C 
BRANCH  11  12
ATOM     12  C   UNL     1      52.590  37.605  23.786  1.00  0.00     0.029 C 
BRANCH  12  13
ATOM     13  C   UNL     1      52.539  37.425  25.286  1.00  0.00    -0.016 C 
ATOM     14  C   UNL     1      52.502  38.811  25.930  1.00  0.00     0.007 C 
ATOM     15  C   UNL     1      53.727  36.630  25.805  1.00  0.00     0.007 C 
ENDBRANCH  12  13
ENDBRANCH  11  12
BRANCH  11  16
ATOM     16  P   UNL     1      52.875  36.001  21.485  1.00  0.00     0.337 P 
ATOM     17  O   UNL     1      53.945  35.479  20.551  1.00  0.00    -0.260 OA
BRANCH  16  18
ATOM     18  O   UNL     1      51.881  34.920  21.964  1.00  0.00    -0.324 OA
ATOM     19  H   UNL     1      52.134  34.617  22.872  1.00  0.00     0.221 HD
ENDBRANCH  16  18
BRANCH  16  20
ATOM     20  O   UNL     1      52.117  37.080  20.744  1.00  0.00    -0.324 OA
ATOM     21  H   UNL     1      51.834  37.783  21.382  1.00  0.00     0.221 HD
ENDBRANCH  16  20
ENDBRANCH  11  16
ENDBRANCH   8  11
ENDBRANCH   1   7
BRANCH   6  22
ATOM     22  N   UNL     1      61.135  38.697  21.125  1.00  0.00    -0.280 N 
ATOM     23  H   UNL     1      61.374  39.666  21.379  1.00  0.00     0.180 HD
BRANCH  22  24
ATOM     24  S   UNL     1      62.299  37.781  20.282  1.00  0.00     0.261 S 
ATOM     25  O   UNL     1      63.491  38.541  19.878  1.00  0.00    -0.201 OA
ATOM     26  O   UNL     1      62.850  36.677  21.081  1.00  0.00    -0.201 OA
BRANCH  24  27
ATOM     27  C   UNL     1      61.389  37.186  18.843  1.00  0.00     0.089 A 
ATOM     28  C   UNL     1      60.979  35.869  18.832  1.00  0.00     0.024 A 
ATOM     29  C   UNL     1      61.087  38.049  17.807  1.00  0.00     0.044 A 
ATOM     30  C   UNL     1      60.267  35.396  17.754  1.00  0.00     0.023 A 
ATOM     31  C   UNL     1      60.369  37.581  16.724  1.00  0.00     0.061 A 
ATOM     32  C   UNL     1      59.959  36.246  16.707  1.00  0.00     0.059 A 
ATOM     33  Cl  UNL     1      60.006  38.730  15.403  1.00  0.00    -0.083 Cl
ATOM     34  Cl  UNL     1      59.032  35.543  15.361  1.00  0.00    -0.083 Cl
ENDBRANCH  24  27
ENDBRANCH  22  24
ENDBRANCH   6  22
TORSDOF 10
ENDMDL
MODEL 20
REMARK VINA RESULT:    -7.517      3.874      5.006
REMARK INTER + INTRA:         -12.388
REMARK INTER:                 -11.172
REMARK INTRA:                  -1.216
REMARK UNBOUND:                -0.915
REMARK SMILES CC(C)C[C@H](C(=O)Nc1ccc(NS(=O)(=O)c2ccc(Cl)c(Cl)c2)cc1)P(=O)(O)O
REMARK SMILES IDX 9 1 11 2 25 3 10 4 26 5 12 6 8 7 6 8 7 9 5 11 4 12 2 13 1 14
REMARK SMILES IDX 3 15 27 16 28 17 29 18 30 20 13 22 14 24 16 25 15 26 17 27
REMARK SMILES IDX 18 28 24 29 19 30 22 31 20 32 23 33 21 34
REMARK H PARENT 8 10 29 19 30 21 13 23
ROOT
ATOM      1  C   UNL     1      52.236  34.329  20.353  1.00  0.00     0.041 A 
ATOM      2  C   UNL     1      51.727  33.616  18.105  1.00  0.00     0.029 A 
ATOM      3  C   UNL     1      50.152  33.249  19.891  1.00  0.00     0.029 A 
ATOM      4  C   UNL     1      52.600  34.212  19.024  1.00  0.00     0.028 A 
ATOM      5  C   UNL     1      51.027  33.842  20.795  1.00  0.00     0.028 A 
ATOM      6  C   UNL     1      50.496  33.141  18.547  1.00  0.00     0.049 A 
ENDROOT
BRANCH   1   7
ATOM      7  N   UNL     1      53.199  34.927  21.260  1.00  0.00    -0.325 N 
ATOM      8  C   UNL     1      53.213  36.309  21.619  1.00  0.00     0.239 C 
ATOM      9  O   UNL     1      52.456  37.145  21.176  1.00  0.00    -0.274 OA
ATOM     10  H   UNL     1      53.918  34.316  21.671  1.00  0.00     0.169 HD
BRANCH   8  11
ATOM     11  C   UNL     1      54.353  36.657  22.576  1.00  0.00     0.194 C 
BRANCH  11  12
ATOM     12  C   UNL     1      55.230  37.718  21.947  1.00  0.00     0.029 C 
BRANCH  12  13
ATOM     13  C   UNL     1      56.621  37.286  21.542  1.00  0.00    -0.016 C 
ATOM     14  C   UNL     1      57.432  38.541  21.215  1.00  0.00     0.007 C 
ATOM     15  C   UNL     1      56.600  36.343  20.349  1.00  0.00     0.007 C 
ENDBRANCH  12  13
ENDBRANCH  11  12
BRANCH  11  16
ATOM     16  P   UNL     1      53.594  37.182  24.179  1.00  0.00     0.337 P 
ATOM     17  O   UNL     1      54.623  37.615  25.200  1.00  0.00    -0.260 OA
BRANCH  16  18
ATOM     18  O   UNL     1      52.584  38.287  23.798  1.00  0.00    -0.324 OA
ATOM     19  H   UNL     1      52.924  38.790  23.015  1.00  0.00     0.221 HD
ENDBRANCH  16  18
BRANCH  16  20
ATOM     20  O   UNL     1      52.844  36.005  24.766  1.00  0.00    -0.324 OA
ATOM     21  H   UNL     1      53.164  35.167  24.345  1.00  0.00     0.221 HD
ENDBRANCH  16  20
ENDBRANCH  11  16
ENDBRANCH   8  11
ENDBRANCH   1   7
BRANCH   6  22
ATOM     22  N   UNL     1      49.546  32.500  17.648  1.00  0.00    -0.280 N 
ATOM     23  H   UNL     1      48.543  32.676  17.799  1.00  0.00     0.180 HD
BRANCH  22  24
ATOM     24  S   UNL     1      49.993  31.476  16.361  1.00  0.00     0.261 S 
ATOM     25  O   UNL     1      48.869  31.024  15.528  1.00  0.00    -0.201 OA
ATOM     26  O   UNL     1      50.895  32.124  15.398  1.00  0.00    -0.201 OA
BRANCH  24  27
ATOM     27  C   UNL     1      50.782  30.086  17.198  1.00  0.00     0.089 A 
ATOM     28  C   UNL     1      49.991  29.260  17.969  1.00  0.00     0.024 A 
ATOM     29  C   UNL     1      52.132  29.850  17.030  1.00  0.00     0.044 A 
ATOM     30  C   UNL     1      50.566  28.182  18.604  1.00  0.00     0.023 A 
ATOM     31  C   UNL     1      52.713  28.768  17.661  1.00  0.00     0.061 A 
ATOM     32  C   UNL     1      51.918  27.934  18.449  1.00  0.00     0.059 A 
ATOM     33  Cl  UNL     1      54.466  28.503  17.421  1.00  0.00    -0.083 Cl
ATOM     34  Cl  UNL     1      52.566  26.515  19.305  1.00  0.00    -0.083 Cl
ENDBRANCH  24  27
ENDBRANCH  22  24
ENDBRANCH   6  22
TORSDOF 10
ENDMDL
