MODEL 1
REMARK VINA RESULT:    -8.360      0.000      0.000
REMARK INTER + INTRA:         -12.840
REMARK INTER:                 -11.782
REMARK INTRA:                  -1.058
REMARK UNBOUND:                -1.058
REMARK SMILES CC(C)C[C@H](C(=O)Nc1ccc(-c2ccc(Cl)cc2)cc1)P(=O)(O)O
REMARK SMILES IDX 8 1 6 2 7 3 9 5 10 6 11 7 12 8 21 9 20 10 13 11 19 12 14 13
REMARK SMILES IDX 18 14 15 15 16 16 17 17 5 18 4 19 2 20 1 21 3 22 22 23 23 24
REMARK SMILES IDX 24 25 25 27
REMARK H PARENT 8 4 24 26 25 28
ROOT
ATOM      1  N   UNL     1      53.019  34.871  21.418  1.00  0.00    -0.325 N 
ATOM      2  C   UNL     1      53.181  36.232  21.688  1.00  0.00     0.239 C 
ATOM      3  O   UNL     1      52.519  37.115  21.189  1.00  0.00    -0.274 OA
ATOM      4  H   UNL     1      53.574  34.198  21.965  1.00  0.00     0.169 HD
ENDROOT
BRANCH   1   5
ATOM      5  C   UNL     1      52.112  34.352  20.409  1.00  0.00     0.041 A 
ATOM      6  C   UNL     1      50.779  34.032  20.643  1.00  0.00     0.027 A 
ATOM      7  C   UNL     1      49.963  33.607  19.586  1.00  0.00     0.011 A 
ATOM      8  C   UNL     1      50.489  33.518  18.305  1.00  0.00    -0.018 A 
ATOM      9  C   UNL     1      52.634  34.344  19.111  1.00  0.00     0.027 A 
ATOM     10  C   UNL     1      51.814  33.901  18.064  1.00  0.00     0.011 A 
BRANCH   8  11
ATOM     11  C   UNL     1      49.587  33.085  17.138  1.00  0.00    -0.018 A 
ATOM     12  C   UNL     1      50.058  32.201  16.201  1.00  0.00     0.010 A 
ATOM     13  C   UNL     1      48.326  33.649  17.021  1.00  0.00     0.010 A 
ATOM     14  C   UNL     1      49.257  31.827  15.132  1.00  0.00     0.021 A 
ATOM     15  C   UNL     1      47.515  33.291  15.947  1.00  0.00     0.021 A 
ATOM     16  C   UNL     1      48.001  32.382  15.021  1.00  0.00     0.041 A 
ATOM     17  Cl  UNL     1      46.977  31.941  13.627  1.00  0.00    -0.084 Cl
ENDBRANCH   8  11
ENDBRANCH   1   5
BRANCH   2  18
ATOM     18  C   UNL     1      54.290  36.480  22.670  1.00  0.00     0.194 C 
BRANCH  18  19
ATOM     19  C   UNL     1      55.031  37.763  22.242  1.00  0.00     0.029 C 
BRANCH  19  20
ATOM     20  C   UNL     1      56.428  37.513  21.690  1.00  0.00    -0.016 C 
ATOM     21  C   UNL     1      56.445  36.553  20.483  1.00  0.00     0.007 C 
ATOM     22  C   UNL     1      57.363  36.966  22.794  1.00  0.00     0.007 C 
ENDBRANCH  19  20
ENDBRANCH  18  19
BRANCH  18  23
ATOM     23  P   UNL     1      53.699  36.570  24.381  1.00  0.00     0.337 P 
ATOM     24  O   UNL     1      54.708  37.411  25.194  1.00  0.00    -0.260 OA
BRANCH  23  25
ATOM     25  O   UNL     1      52.380  37.280  24.357  1.00  0.00    -0.324 OA
ATOM     26  H   UNL     1      52.017  37.332  25.277  1.00  0.00     0.221 HD
ENDBRANCH  23  25
BRANCH  23  27
ATOM     27  O   UNL     1      53.656  35.160  24.927  1.00  0.00    -0.324 OA
ATOM     28  H   UNL     1      52.734  34.807  24.855  1.00  0.00     0.221 HD
ENDBRANCH  23  27
ENDBRANCH  18  23
ENDBRANCH   2  18
TORSDOF 8
ENDMDL
MODEL 2
REMARK VINA RESULT:    -8.275      1.902      2.530
REMARK INTER + INTRA:         -12.719
REMARK INTER:                 -11.542
REMARK INTRA:                  -1.178
REMARK UNBOUND:                -1.058
REMARK SMILES CC(C)C[C@H](C(=O)Nc1ccc(-c2ccc(Cl)cc2)cc1)P(=O)(O)O
REMARK SMILES IDX 8 1 6 2 7 3 9 5 10 6 11 7 12 8 21 9 20 10 13 11 19 12 14 13
REMARK SMILES IDX 18 14 15 15 16 16 17 17 5 18 4 19 2 20 1 21 3 22 22 23 23 24
REMARK SMILES IDX 24 25 25 27
REMARK H PARENT 8 4 24 26 25 28
ROOT
ATOM      1  N   UNL     1      53.165  35.408  21.700  1.00  0.00    -0.325 N 
ATOM      2  C   UNL     1      53.202  36.791  21.888  1.00  0.00     0.239 C 
ATOM      3  O   UNL     1      52.507  37.584  21.296  1.00  0.00    -0.274 OA
ATOM      4  H   UNL     1      53.735  34.817  22.321  1.00  0.00     0.169 HD
ENDROOT
BRANCH   1   5
ATOM      5  C   UNL     1      52.366  34.755  20.678  1.00  0.00     0.041 A 
ATOM      6  C   UNL     1      51.012  34.461  20.808  1.00  0.00     0.027 A 
ATOM      7  C   UNL     1      50.309  33.896  19.737  1.00  0.00     0.011 A 
ATOM      8  C   UNL     1      50.967  33.643  18.541  1.00  0.00    -0.018 A 
ATOM      9  C   UNL     1      53.022  34.580  19.455  1.00  0.00     0.027 A 
ATOM     10  C   UNL     1      52.313  33.999  18.394  1.00  0.00     0.011 A 
BRANCH   8  11
ATOM     11  C   UNL     1      50.191  33.054  17.352  1.00  0.00    -0.018 A 
ATOM     12  C   UNL     1      50.834  32.256  16.441  1.00  0.00     0.010 A 
ATOM     13  C   UNL     1      48.857  33.397  17.188  1.00  0.00     0.010 A 
ATOM     14  C   UNL     1      50.143  31.744  15.353  1.00  0.00     0.021 A 
ATOM     15  C   UNL     1      48.153  32.899  16.094  1.00  0.00     0.021 A 
ATOM     16  C   UNL     1      48.816  32.078  15.196  1.00  0.00     0.041 A 
ATOM     17  Cl  UNL     1      47.928  31.461  13.775  1.00  0.00    -0.084 Cl
ENDBRANCH   8  11
ENDBRANCH   1   5
BRANCH   2  18
ATOM     18  C   UNL     1      54.226  37.188  22.914  1.00  0.00     0.194 C 
BRANCH  18  19
ATOM     19  C   UNL     1      53.987  36.345  24.182  1.00  0.00     0.029 C 
BRANCH  19  20
ATOM     20  C   UNL     1      53.503  37.153  25.378  1.00  0.00    -0.016 C 
ATOM     21  C   UNL     1      52.830  38.483  24.985  1.00  0.00     0.007 C 
ATOM     22  C   UNL     1      54.668  37.438  26.355  1.00  0.00     0.007 C 
ENDBRANCH  19  20
ENDBRANCH  18  19
BRANCH  18  23
ATOM     23  P   UNL     1      55.924  37.033  22.299  1.00  0.00     0.337 P 
ATOM     24  O   UNL     1      56.351  38.400  21.719  1.00  0.00    -0.260 OA
BRANCH  23  25
ATOM     25  O   UNL     1      56.794  36.711  23.475  1.00  0.00    -0.324 OA
ATOM     26  H   UNL     1      57.555  36.151  23.179  1.00  0.00     0.221 HD
ENDBRANCH  23  25
BRANCH  23  27
ATOM     27  O   UNL     1      55.922  35.993  21.201  1.00  0.00    -0.324 OA
ATOM     28  H   UNL     1      56.854  35.800  20.928  1.00  0.00     0.221 HD
ENDBRANCH  23  27
ENDBRANCH  18  23
ENDBRANCH   2  18
TORSDOF 8
ENDMDL
MODEL 3
REMARK VINA RESULT:    -8.066      2.908      4.081
REMARK INTER + INTRA:         -12.425
REMARK INTER:                 -11.570
REMARK INTRA:                  -0.855
REMARK UNBOUND:                -1.058
REMARK SMILES CC(C)C[C@H](C(=O)Nc1ccc(-c2ccc(Cl)cc2)cc1)P(=O)(O)O
REMARK SMILES IDX 8 1 6 2 7 3 9 5 10 6 11 7 12 8 21 9 20 10 13 11 19 12 14 13
REMARK SMILES IDX 18 14 15 15 16 16 17 17 5 18 4 19 2 20 1 21 3 22 22 23 23 24
REMARK SMILES IDX 24 25 25 27
REMARK H PARENT 8 4 24 26 25 28
ROOT
ATOM      1  N   UNL     1      50.308  33.225  19.500  1.00  0.00    -0.325 N 
ATOM      2  C   UNL     1      51.133  34.319  19.767  1.00  0.00     0.239 C 
ATOM      3  O   UNL     1      51.048  35.394  19.218  1.00  0.00    -0.274 OA
ATOM      4  H   UNL     1      50.407  32.385  20.087  1.00  0.00     0.169 HD
ENDROOT
BRANCH   1   5
ATOM      5  C   UNL     1      49.316  33.204  18.438  1.00  0.00     0.041 A 
ATOM      6  C   UNL     1      48.001  33.630  18.585  1.00  0.00     0.027 A 
ATOM      7  C   UNL     1      47.138  33.640  17.481  1.00  0.00     0.011 A 
ATOM      8  C   UNL     1      47.607  33.235  16.239  1.00  0.00    -0.018 A 
ATOM      9  C   UNL     1      49.825  32.869  17.179  1.00  0.00     0.027 A 
ATOM     10  C   UNL     1      48.949  32.867  16.084  1.00  0.00     0.011 A 
BRANCH   8  11
ATOM     11  C   UNL     1      46.673  33.277  15.019  1.00  0.00    -0.018 A 
ATOM     12  C   UNL     1      46.889  32.432  13.961  1.00  0.00     0.010 A 
ATOM     13  C   UNL     1      45.658  34.221  14.986  1.00  0.00     0.010 A 
ATOM     14  C   UNL     1      46.064  32.485  12.847  1.00  0.00     0.021 A 
ATOM     15  C   UNL     1      44.828  34.293  13.870  1.00  0.00     0.021 A 
ATOM     16  C   UNL     1      45.051  33.417  12.819  1.00  0.00     0.041 A 
ATOM     17  Cl  UNL     1      44.009  33.524  11.373  1.00  0.00    -0.084 Cl
ENDBRANCH   8  11
ENDBRANCH   1   5
BRANCH   2  18
ATOM     18  C   UNL     1      52.159  34.002  20.818  1.00  0.00     0.194 C 
BRANCH  18  19
ATOM     19  C   UNL     1      53.264  33.146  20.166  1.00  0.00     0.029 C 
BRANCH  19  20
ATOM     20  C   UNL     1      53.223  33.141  18.644  1.00  0.00    -0.016 C 
ATOM     21  C   UNL     1      53.209  31.724  18.037  1.00  0.00     0.007 C 
ATOM     22  C   UNL     1      54.415  33.936  18.062  1.00  0.00     0.007 C 
ENDBRANCH  19  20
ENDBRANCH  18  19
BRANCH  18  23
ATOM     23  P   UNL     1      52.826  35.490  21.611  1.00  0.00     0.337 P 
ATOM     24  O   UNL     1      54.046  35.965  20.790  1.00  0.00    -0.260 OA
BRANCH  23  25
ATOM     25  O   UNL     1      51.759  36.540  21.551  1.00  0.00    -0.324 OA
ATOM     26  H   UNL     1      52.149  37.419  21.785  1.00  0.00     0.221 HD
ENDBRANCH  23  25
BRANCH  23  27
ATOM     27  O   UNL     1      53.269  35.108  23.006  1.00  0.00    -0.324 OA
ATOM     28  H   UNL     1      53.696  35.888  23.441  1.00  0.00     0.221 HD
ENDBRANCH  23  27
ENDBRANCH  18  23
ENDBRANCH   2  18
TORSDOF 8
ENDMDL
MODEL 4
REMARK VINA RESULT:    -7.882      4.127      5.913
REMARK INTER + INTRA:         -12.166
REMARK INTER:                 -11.409
REMARK INTRA:                  -0.757
REMARK UNBOUND:                -1.058
REMARK SMILES CC(C)C[C@H](C(=O)Nc1ccc(-c2ccc(Cl)cc2)cc1)P(=O)(O)O
REMARK SMILES IDX 8 1 6 2 7 3 9 5 10 6 11 7 12 8 21 9 20 10 13 11 19 12 14 13
REMARK SMILES IDX 18 14 15 15 16 16 17 17 5 18 4 19 2 20 1 21 3 22 22 23 23 24
REMARK SMILES IDX 24 25 25 27
REMARK H PARENT 8 4 24 26 25 28
ROOT
ATOM      1  N   UNL     1      48.583  33.380  18.587  1.00  0.00    -0.325 N 
ATOM      2  C   UNL     1      49.955  33.642  18.592  1.00  0.00     0.239 C 
ATOM      3  O   UNL     1      50.588  34.005  17.626  1.00  0.00    -0.274 OA
ATOM      4  H   UNL     1      48.126  33.164  19.485  1.00  0.00     0.169 HD
ENDROOT
BRANCH   1   5
ATOM      5  C   UNL     1      47.764  33.396  17.389  1.00  0.00     0.041 A 
ATOM      6  C   UNL     1      46.845  34.394  17.079  1.00  0.00     0.027 A 
ATOM      7  C   UNL     1      46.154  34.359  15.861  1.00  0.00     0.011 A 
ATOM      8  C   UNL     1      46.399  33.333  14.960  1.00  0.00    -0.018 A 
ATOM      9  C   UNL     1      48.080  32.401  16.458  1.00  0.00     0.027 A 
ATOM     10  C   UNL     1      47.371  32.366  15.249  1.00  0.00     0.011 A 
BRANCH   8  11
ATOM     11  C   UNL     1      45.667  33.311  13.609  1.00  0.00    -0.018 A 
ATOM     12  C   UNL     1      46.072  32.446  12.625  1.00  0.00     0.010 A 
ATOM     13  C   UNL     1      44.643  34.219  13.388  1.00  0.00     0.010 A 
ATOM     14  C   UNL     1      45.431  32.441  11.395  1.00  0.00     0.021 A 
ATOM     15  C   UNL     1      43.997  34.233  12.154  1.00  0.00     0.021 A 
ATOM     16  C   UNL     1      44.408  33.337  11.180  1.00  0.00     0.041 A 
ATOM     17  Cl  UNL     1      43.604  33.370   9.586  1.00  0.00    -0.084 Cl
ENDBRANCH   8  11
ENDBRANCH   1   5
BRANCH   2  18
ATOM     18  C   UNL     1      50.565  33.406  19.944  1.00  0.00     0.194 C 
BRANCH  18  19
ATOM     19  C   UNL     1      51.152  31.980  19.964  1.00  0.00     0.029 C 
BRANCH  19  20
ATOM     20  C   UNL     1      51.283  31.349  18.584  1.00  0.00    -0.016 C 
ATOM     21  C   UNL     1      50.629  29.956  18.485  1.00  0.00     0.007 C 
ATOM     22  C   UNL     1      52.769  31.248  18.167  1.00  0.00     0.007 C 
ENDBRANCH  19  20
ENDBRANCH  18  19
BRANCH  18  23
ATOM     23  P   UNL     1      51.800  34.659  20.379  1.00  0.00     0.337 P 
ATOM     24  O   UNL     1      53.170  34.191  19.838  1.00  0.00    -0.260 OA
BRANCH  23  25
ATOM     25  O   UNL     1      51.410  35.927  19.682  1.00  0.00    -0.324 OA
ATOM     26  H   UNL     1      50.979  36.540  20.330  1.00  0.00     0.221 HD
ENDBRANCH  23  25
BRANCH  23  27
ATOM     27  O   UNL     1      51.853  34.750  21.888  1.00  0.00    -0.324 OA
ATOM     28  H   UNL     1      52.678  34.312  22.215  1.00  0.00     0.221 HD
ENDBRANCH  23  27
ENDBRANCH  18  23
ENDBRANCH   2  18
TORSDOF 8
ENDMDL
MODEL 5
REMARK VINA RESULT:    -7.793      6.960     10.415
REMARK INTER + INTRA:         -12.041
REMARK INTER:                 -11.020
REMARK INTRA:                  -1.021
REMARK UNBOUND:                -1.058
REMARK SMILES CC(C)C[C@H](C(=O)Nc1ccc(-c2ccc(Cl)cc2)cc1)P(=O)(O)O
REMARK SMILES IDX 8 1 6 2 7 3 9 5 10 6 11 7 12 8 21 9 20 10 13 11 19 12 14 13
REMARK SMILES IDX 18 14 15 15 16 16 17 17 5 18 4 19 2 20 1 21 3 22 22 23 23 24
REMARK SMILES IDX 24 25 25 27
REMARK H PARENT 8 4 24 26 25 28
ROOT
ATOM      1  N   UNL     1      55.978  36.630  22.068  1.00  0.00    -0.325 N 
ATOM      2  C   UNL     1      54.915  37.395  22.551  1.00  0.00     0.239 C 
ATOM      3  O   UNL     1      54.938  38.598  22.682  1.00  0.00    -0.274 OA
ATOM      4  H   UNL     1      55.821  35.624  21.912  1.00  0.00     0.169 HD
ENDROOT
BRANCH   1   5
ATOM      5  C   UNL     1      57.293  37.172  21.774  1.00  0.00     0.041 A 
ATOM      6  C   UNL     1      57.565  38.050  20.731  1.00  0.00     0.027 A 
ATOM      7  C   UNL     1      58.853  38.577  20.573  1.00  0.00     0.011 A 
ATOM      8  C   UNL     1      59.853  38.228  21.470  1.00  0.00    -0.018 A 
ATOM      9  C   UNL     1      58.269  36.874  22.732  1.00  0.00     0.027 A 
ATOM     10  C   UNL     1      59.559  37.393  22.555  1.00  0.00     0.011 A 
BRANCH   8  11
ATOM     11  C   UNL     1      61.259  38.830  21.319  1.00  0.00    -0.018 A 
ATOM     12  C   UNL     1      61.413  40.188  21.203  1.00  0.00     0.010 A 
ATOM     13  C   UNL     1      62.348  37.976  21.239  1.00  0.00     0.010 A 
ATOM     14  C   UNL     1      62.678  40.734  21.041  1.00  0.00     0.021 A 
ATOM     15  C   UNL     1      63.623  38.509  21.065  1.00  0.00     0.021 A 
ATOM     16  C   UNL     1      63.760  39.885  20.971  1.00  0.00     0.041 A 
ATOM     17  Cl  UNL     1      65.388  40.573  20.718  1.00  0.00    -0.084 Cl
ENDBRANCH   8  11
ENDBRANCH   1   5
BRANCH   2  18
ATOM     18  C   UNL     1      53.728  36.545  22.905  1.00  0.00     0.194 C 
BRANCH  18  19
ATOM     19  C   UNL     1      52.768  37.394  23.763  1.00  0.00     0.029 C 
BRANCH  19  20
ATOM     20  C   UNL     1      52.945  37.198  25.263  1.00  0.00    -0.016 C 
ATOM     21  C   UNL     1      53.583  38.411  25.968  1.00  0.00     0.007 C 
ATOM     22  C   UNL     1      53.788  35.934  25.554  1.00  0.00     0.007 C 
ENDBRANCH  19  20
ENDBRANCH  18  19
BRANCH  18  23
ATOM     23  P   UNL     1      52.908  35.851  21.446  1.00  0.00     0.337 P 
ATOM     24  O   UNL     1      53.998  35.311  20.494  1.00  0.00    -0.260 OA
BRANCH  23  25
ATOM     25  O   UNL     1      52.061  34.707  21.915  1.00  0.00    -0.324 OA
ATOM     26  H   UNL     1      51.841  34.124  21.146  1.00  0.00     0.221 HD
ENDBRANCH  23  25
BRANCH  23  27
ATOM     27  O   UNL     1      52.150  36.971  20.768  1.00  0.00    -0.324 OA
ATOM     28  H   UNL     1      52.471  37.069  19.836  1.00  0.00     0.221 HD
ENDBRANCH  23  27
ENDBRANCH  18  23
ENDBRANCH   2  18
TORSDOF 8
ENDMDL
MODEL 6
REMARK VINA RESULT:    -7.686      2.543      3.348
REMARK INTER + INTRA:         -11.890
REMARK INTER:                 -10.816
REMARK INTRA:                  -1.074
REMARK UNBOUND:                -1.058
REMARK SMILES CC(C)C[C@H](C(=O)Nc1ccc(-c2ccc(Cl)cc2)cc1)P(=O)(O)O
REMARK SMILES IDX 8 1 6 2 7 3 9 5 10 6 11 7 12 8 21 9 20 10 13 11 19 12 14 13
REMARK SMILES IDX 18 14 15 15 16 16 17 17 5 18 4 19 2 20 1 21 3 22 22 23 23 24
REMARK SMILES IDX 24 25 25 27
REMARK H PARENT 8 4 24 26 25 28
ROOT
ATOM      1  N   UNL     1      53.163  34.942  21.779  1.00  0.00    -0.325 N 
ATOM      2  C   UNL     1      52.950  36.314  21.627  1.00  0.00     0.239 C 
ATOM      3  O   UNL     1      52.169  36.805  20.843  1.00  0.00    -0.274 OA
ATOM      4  H   UNL     1      53.785  34.628  22.537  1.00  0.00     0.169 HD
ENDROOT
BRANCH   1   5
ATOM      5  C   UNL     1      52.558  33.934  20.927  1.00  0.00     0.041 A 
ATOM      6  C   UNL     1      51.192  33.681  20.860  1.00  0.00     0.027 A 
ATOM      7  C   UNL     1      50.696  32.737  19.952  1.00  0.00     0.011 A 
ATOM      8  C   UNL     1      51.573  32.064  19.112  1.00  0.00    -0.018 A 
ATOM      9  C   UNL     1      53.444  33.323  20.034  1.00  0.00     0.027 A 
ATOM     10  C   UNL     1      52.940  32.367  19.140  1.00  0.00     0.011 A 
BRANCH   8  11
ATOM     11  C   UNL     1      51.029  31.052  18.091  1.00  0.00    -0.018 A 
ATOM     12  C   UNL     1      50.776  29.760  18.476  1.00  0.00     0.010 A 
ATOM     13  C   UNL     1      50.862  31.453  16.774  1.00  0.00     0.010 A 
ATOM     14  C   UNL     1      50.310  28.837  17.551  1.00  0.00     0.021 A 
ATOM     15  C   UNL     1      50.405  30.534  15.833  1.00  0.00     0.021 A 
ATOM     16  C   UNL     1      50.136  29.239  16.246  1.00  0.00     0.041 A 
ATOM     17  Cl  UNL     1      49.578  28.049  15.038  1.00  0.00    -0.084 Cl
ENDBRANCH   8  11
ENDBRANCH   1   5
BRANCH   2  18
ATOM     18  C   UNL     1      53.820  37.121  22.548  1.00  0.00     0.194 C 
BRANCH  18  19
ATOM     19  C   UNL     1      53.657  36.560  23.975  1.00  0.00     0.029 C 
BRANCH  19  20
ATOM     20  C   UNL     1      53.601  37.631  25.056  1.00  0.00    -0.016 C 
ATOM     21  C   UNL     1      54.578  37.376  26.221  1.00  0.00     0.007 C 
ATOM     22  C   UNL     1      52.165  37.772  25.613  1.00  0.00     0.007 C 
ENDBRANCH  19  20
ENDBRANCH  18  19
BRANCH  18  23
ATOM     23  P   UNL     1      55.553  37.153  22.020  1.00  0.00     0.337 P 
ATOM     24  O   UNL     1      55.686  36.274  20.756  1.00  0.00    -0.260 OA
BRANCH  23  25
ATOM     25  O   UNL     1      55.883  38.571  21.664  1.00  0.00    -0.324 OA
ATOM     26  H   UNL     1      55.920  38.663  20.679  1.00  0.00     0.221 HD
ENDBRANCH  23  25
BRANCH  23  27
ATOM     27  O   UNL     1      56.386  36.565  23.137  1.00  0.00    -0.324 OA
ATOM     28  H   UNL     1      57.347  36.686  22.932  1.00  0.00     0.221 HD
ENDBRANCH  23  27
ENDBRANCH  18  23
ENDBRANCH   2  18
TORSDOF 8
ENDMDL
MODEL 7
REMARK VINA RESULT:    -7.634      6.749     10.180
REMARK INTER + INTRA:         -11.816
REMARK INTER:                 -11.124
REMARK INTRA:                  -0.693
REMARK UNBOUND:                -1.058
REMARK SMILES CC(C)C[C@H](C(=O)Nc1ccc(-c2ccc(Cl)cc2)cc1)P(=O)(O)O
REMARK SMILES IDX 8 1 6 2 7 3 9 5 10 6 11 7 12 8 21 9 20 10 13 11 19 12 14 13
REMARK SMILES IDX 18 14 15 15 16 16 17 17 5 18 4 19 2 20 1 21 3 22 22 23 23 24
REMARK SMILES IDX 24 25 25 27
REMARK H PARENT 8 4 24 26 25 28
ROOT
ATOM      1  N   UNL     1      55.962  36.666  21.997  1.00  0.00    -0.325 N 
ATOM      2  C   UNL     1      54.754  37.308  22.276  1.00  0.00     0.239 C 
ATOM      3  O   UNL     1      54.588  38.506  22.243  1.00  0.00    -0.274 OA
ATOM      4  H   UNL     1      55.971  35.637  21.966  1.00  0.00     0.169 HD
ENDROOT
BRANCH   1   5
ATOM      5  C   UNL     1      57.209  37.369  21.749  1.00  0.00     0.041 A 
ATOM      6  C   UNL     1      58.386  37.153  22.458  1.00  0.00     0.027 A 
ATOM      7  C   UNL     1      59.558  37.828  22.095  1.00  0.00     0.011 A 
ATOM      8  C   UNL     1      59.542  38.703  21.018  1.00  0.00    -0.018 A 
ATOM      9  C   UNL     1      57.196  38.186  20.613  1.00  0.00     0.027 A 
ATOM     10  C   UNL     1      58.371  38.869  20.268  1.00  0.00     0.011 A 
BRANCH   8  11
ATOM     11  C   UNL     1      60.835  39.420  20.596  1.00  0.00    -0.018 A 
ATOM     12  C   UNL     1      62.028  39.081  21.182  1.00  0.00     0.010 A 
ATOM     13  C   UNL     1      60.759  40.447  19.668  1.00  0.00     0.010 A 
ATOM     14  C   UNL     1      63.193  39.743  20.823  1.00  0.00     0.021 A 
ATOM     15  C   UNL     1      61.919  41.128  19.306  1.00  0.00     0.021 A 
ATOM     16  C   UNL     1      63.117  40.758  19.895  1.00  0.00     0.041 A 
ATOM     17  Cl  UNL     1      64.603  41.646  19.457  1.00  0.00    -0.084 Cl
ENDBRANCH   8  11
ENDBRANCH   1   5
BRANCH   2  18
ATOM     18  C   UNL     1      53.671  36.330  22.637  1.00  0.00     0.194 C 
BRANCH  18  19
ATOM     19  C   UNL     1      52.647  37.058  23.531  1.00  0.00     0.029 C 
BRANCH  19  20
ATOM     20  C   UNL     1      53.192  37.457  24.895  1.00  0.00    -0.016 C 
ATOM     21  C   UNL     1      53.646  36.255  25.748  1.00  0.00     0.007 C 
ATOM     22  C   UNL     1      52.146  38.278  25.685  1.00  0.00     0.007 C 
ENDBRANCH  19  20
ENDBRANCH  18  19
BRANCH  18  23
ATOM     23  P   UNL     1      52.897  35.578  21.181  1.00  0.00     0.337 P 
ATOM     24  O   UNL     1      54.020  35.103  20.232  1.00  0.00    -0.260 OA
BRANCH  23  25
ATOM     25  O   UNL     1      52.123  34.386  21.656  1.00  0.00    -0.324 OA
ATOM     26  H   UNL     1      52.248  34.280  22.632  1.00  0.00     0.221 HD
ENDBRANCH  23  25
BRANCH  23  27
ATOM     27  O   UNL     1      52.071  36.645  20.497  1.00  0.00    -0.324 OA
ATOM     28  H   UNL     1      52.256  36.633  19.525  1.00  0.00     0.221 HD
ENDBRANCH  23  27
ENDBRANCH  18  23
ENDBRANCH   2  18
TORSDOF 8
ENDMDL
MODEL 8
REMARK VINA RESULT:    -7.351      2.343      3.318
REMARK INTER + INTRA:         -11.417
REMARK INTER:                 -10.603
REMARK INTRA:                  -0.814
REMARK UNBOUND:                -1.058
REMARK SMILES CC(C)C[C@H](C(=O)Nc1ccc(-c2ccc(Cl)cc2)cc1)P(=O)(O)O
REMARK SMILES IDX 8 1 6 2 7 3 9 5 10 6 11 7 12 8 21 9 20 10 13 11 19 12 14 13
REMARK SMILES IDX 18 14 15 15 16 16 17 17 5 18 4 19 2 20 1 21 3 22 22 23 23 24
REMARK SMILES IDX 24 25 25 27
REMARK H PARENT 8 4 24 26 25 28
ROOT
ATOM      1  N   UNL     1      53.180  36.161  22.700  1.00  0.00    -0.325 N 
ATOM      2  C   UNL     1      53.362  37.540  22.821  1.00  0.00     0.239 C 
ATOM      3  O   UNL     1      53.130  38.343  21.945  1.00  0.00    -0.274 OA
ATOM      4  H   UNL     1      53.323  35.576  23.536  1.00  0.00     0.169 HD
ENDROOT
BRANCH   1   5
ATOM      5  C   UNL     1      52.802  35.503  21.462  1.00  0.00     0.041 A 
ATOM      6  C   UNL     1      53.703  34.929  20.571  1.00  0.00     0.027 A 
ATOM      7  C   UNL     1      53.235  34.252  19.437  1.00  0.00     0.011 A 
ATOM      8  C   UNL     1      51.869  34.146  19.214  1.00  0.00    -0.018 A 
ATOM      9  C   UNL     1      51.423  35.337  21.293  1.00  0.00     0.027 A 
ATOM     10  C   UNL     1      50.966  34.671  20.147  1.00  0.00     0.011 A 
BRANCH   8  11
ATOM     11  C   UNL     1      51.352  33.375  17.990  1.00  0.00    -0.018 A 
ATOM     12  C   UNL     1      52.241  32.819  17.106  1.00  0.00     0.010 A 
ATOM     13  C   UNL     1      49.985  33.310  17.768  1.00  0.00     0.010 A 
ATOM     14  C   UNL     1      51.779  32.144  15.985  1.00  0.00     0.021 A 
ATOM     15  C   UNL     1      49.507  32.645  16.641  1.00  0.00     0.021 A 
ATOM     16  C   UNL     1      50.421  32.073  15.770  1.00  0.00     0.041 A 
ATOM     17  Cl  UNL     1      49.815  31.245  14.309  1.00  0.00    -0.084 Cl
ENDBRANCH   8  11
ENDBRANCH   1   5
BRANCH   2  18
ATOM     18  C   UNL     1      53.897  37.918  24.173  1.00  0.00     0.194 C 
BRANCH  18  19
ATOM     19  C   UNL     1      52.698  38.165  25.111  1.00  0.00     0.029 C 
BRANCH  19  20
ATOM     20  C   UNL     1      52.741  39.508  25.826  1.00  0.00    -0.016 C 
ATOM     21  C   UNL     1      53.963  39.668  26.753  1.00  0.00     0.007 C 
ATOM     22  C   UNL     1      51.446  39.737  26.641  1.00  0.00     0.007 C 
ENDBRANCH  19  20
ENDBRANCH  18  19
BRANCH  18  23
ATOM     23  P   UNL     1      55.042  36.682  24.840  1.00  0.00     0.337 P 
ATOM     24  O   UNL     1      55.631  37.234  26.157  1.00  0.00    -0.260 OA
BRANCH  23  25
ATOM     25  O   UNL     1      54.242  35.452  25.142  1.00  0.00    -0.324 OA
ATOM     26  H   UNL     1      54.314  34.818  24.385  1.00  0.00     0.221 HD
ENDBRANCH  23  25
BRANCH  23  27
ATOM     27  O   UNL     1      56.151  36.490  23.828  1.00  0.00    -0.324 OA
ATOM     28  H   UNL     1      55.921  36.968  22.993  1.00  0.00     0.221 HD
ENDBRANCH  23  27
ENDBRANCH  18  23
ENDBRANCH   2  18
TORSDOF 8
ENDMDL
MODEL 9
REMARK VINA RESULT:    -7.334      5.189      9.985
REMARK INTER + INTRA:         -11.394
REMARK INTER:                 -10.362
REMARK INTRA:                  -1.032
REMARK UNBOUND:                -1.058
REMARK SMILES CC(C)C[C@H](C(=O)Nc1ccc(-c2ccc(Cl)cc2)cc1)P(=O)(O)O
REMARK SMILES IDX 8 1 6 2 7 3 9 5 10 6 11 7 12 8 21 9 20 10 13 11 19 12 14 13
REMARK SMILES IDX 18 14 15 15 16 16 17 17 5 18 4 19 2 20 1 21 3 22 22 23 23 24
REMARK SMILES IDX 24 25 25 27
REMARK H PARENT 8 4 24 26 25 28
ROOT
ATOM      1  N   UNL     1      55.102  36.061  20.843  1.00  0.00    -0.325 N 
ATOM      2  C   UNL     1      54.697  35.009  20.019  1.00  0.00     0.239 C 
ATOM      3  O   UNL     1      55.431  34.397  19.276  1.00  0.00    -0.274 OA
ATOM      4  H   UNL     1      54.416  36.453  21.503  1.00  0.00     0.169 HD
ENDROOT
BRANCH   1   5
ATOM      5  C   UNL     1      56.437  36.633  20.823  1.00  0.00     0.041 A 
ATOM      6  C   UNL     1      57.109  37.014  19.667  1.00  0.00     0.027 A 
ATOM      7  C   UNL     1      58.366  37.626  19.755  1.00  0.00     0.011 A 
ATOM      8  C   UNL     1      58.931  37.860  21.001  1.00  0.00    -0.018 A 
ATOM      9  C   UNL     1      56.956  36.934  22.086  1.00  0.00     0.027 A 
ATOM     10  C   UNL     1      58.222  37.532  22.163  1.00  0.00     0.011 A 
BRANCH   8  11
ATOM     11  C   UNL     1      60.295  38.562  21.102  1.00  0.00    -0.018 A 
ATOM     12  C   UNL     1      60.387  39.914  20.891  1.00  0.00     0.010 A 
ATOM     13  C   UNL     1      61.425  37.796  21.345  1.00  0.00     0.010 A 
ATOM     14  C   UNL     1      61.620  40.547  20.956  1.00  0.00     0.021 A 
ATOM     15  C   UNL     1      62.671  38.416  21.401  1.00  0.00     0.021 A 
ATOM     16  C   UNL     1      62.740  39.786  21.205  1.00  0.00     0.041 A 
ATOM     17  Cl  UNL     1      64.338  40.583  21.248  1.00  0.00    -0.084 Cl
ENDBRANCH   8  11
ENDBRANCH   1   5
BRANCH   2  18
ATOM     18  C   UNL     1      53.227  34.728  20.151  1.00  0.00     0.194 C 
BRANCH  18  19
ATOM     19  C   UNL     1      53.047  33.212  20.369  1.00  0.00     0.029 C 
BRANCH  19  20
ATOM     20  C   UNL     1      52.225  32.526  19.286  1.00  0.00    -0.016 C 
ATOM     21  C   UNL     1      52.067  33.376  18.009  1.00  0.00     0.007 C 
ATOM     22  C   UNL     1      50.825  32.142  19.822  1.00  0.00     0.007 C 
ENDBRANCH  19  20
ENDBRANCH  18  19
BRANCH  18  23
ATOM     23  P   UNL     1      52.446  35.705  21.462  1.00  0.00     0.337 P 
ATOM     24  O   UNL     1      52.639  37.200  21.125  1.00  0.00    -0.260 OA
BRANCH  23  25
ATOM     25  O   UNL     1      50.983  35.386  21.441  1.00  0.00    -0.324 OA
ATOM     26  H   UNL     1      50.845  34.450  21.734  1.00  0.00     0.221 HD
ENDBRANCH  23  25
BRANCH  23  27
ATOM     27  O   UNL     1      53.153  35.381  22.760  1.00  0.00    -0.324 OA
ATOM     28  H   UNL     1      52.857  36.013  23.462  1.00  0.00     0.221 HD
ENDBRANCH  23  27
ENDBRANCH  18  23
ENDBRANCH   2  18
TORSDOF 8
ENDMDL
MODEL 10
REMARK VINA RESULT:    -7.286      2.461      3.047
REMARK INTER + INTRA:         -11.325
REMARK INTER:                 -10.427
REMARK INTRA:                  -0.898
REMARK UNBOUND:                -1.058
REMARK SMILES CC(C)C[C@H](C(=O)Nc1ccc(-c2ccc(Cl)cc2)cc1)P(=O)(O)O
REMARK SMILES IDX 8 1 6 2 7 3 9 5 10 6 11 7 12 8 21 9 20 10 13 11 19 12 14 13
REMARK SMILES IDX 18 14 15 15 16 16 17 17 5 18 4 19 2 20 1 21 3 22 22 23 23 24
REMARK SMILES IDX 24 25 25 27
REMARK H PARENT 8 4 24 26 25 28
ROOT
ATOM      1  N   UNL     1      53.144  34.812  21.254  1.00  0.00    -0.325 N 
ATOM      2  C   UNL     1      54.281  35.542  20.903  1.00  0.00     0.239 C 
ATOM      3  O   UNL     1      54.873  35.431  19.853  1.00  0.00    -0.274 OA
ATOM      4  H   UNL     1      52.666  35.049  22.134  1.00  0.00     0.169 HD
ENDROOT
BRANCH   1   5
ATOM      5  C   UNL     1      52.597  33.736  20.446  1.00  0.00     0.041 A 
ATOM      6  C   UNL     1      53.365  32.827  19.726  1.00  0.00     0.027 A 
ATOM      7  C   UNL     1      52.746  31.777  19.035  1.00  0.00     0.011 A 
ATOM      8  C   UNL     1      51.366  31.642  19.083  1.00  0.00    -0.018 A 
ATOM      9  C   UNL     1      51.214  33.567  20.568  1.00  0.00     0.027 A 
ATOM     10  C   UNL     1      50.603  32.522  19.860  1.00  0.00     0.011 A 
BRANCH   8  11
ATOM     11  C   UNL     1      50.687  30.471  18.353  1.00  0.00    -0.018 A 
ATOM     12  C   UNL     1      49.979  30.700  17.202  1.00  0.00     0.010 A 
ATOM     13  C   UNL     1      50.754  29.205  18.914  1.00  0.00     0.010 A 
ATOM     14  C   UNL     1      49.343  29.650  16.555  1.00  0.00     0.021 A 
ATOM     15  C   UNL     1      50.112  28.143  18.281  1.00  0.00     0.021 A 
ATOM     16  C   UNL     1      49.417  28.391  17.108  1.00  0.00     0.041 A 
ATOM     17  Cl  UNL     1      48.567  27.041  16.308  1.00  0.00    -0.084 Cl
ENDBRANCH   8  11
ENDBRANCH   1   5
BRANCH   2  18
ATOM     18  C   UNL     1      54.700  36.485  21.996  1.00  0.00     0.194 C 
BRANCH  18  19
ATOM     19  C   UNL     1      55.819  37.391  21.444  1.00  0.00     0.029 C 
BRANCH  19  20
ATOM     20  C   UNL     1      57.208  37.040  21.962  1.00  0.00    -0.016 C 
ATOM     21  C   UNL     1      57.247  36.786  23.483  1.00  0.00     0.007 C 
ATOM     22  C   UNL     1      58.223  38.149  21.602  1.00  0.00     0.007 C 
ENDBRANCH  19  20
ENDBRANCH  18  19
BRANCH  18  23
ATOM     23  P   UNL     1      53.311  37.442  22.660  1.00  0.00     0.337 P 
ATOM     24  O   UNL     1      53.887  38.597  23.510  1.00  0.00    -0.260 OA
BRANCH  23  25
ATOM     25  O   UNL     1      52.571  38.019  21.492  1.00  0.00    -0.324 OA
ATOM     26  H   UNL     1      52.465  37.325  20.794  1.00  0.00     0.221 HD
ENDBRANCH  23  25
BRANCH  23  27
ATOM     27  O   UNL     1      52.497  36.520  23.540  1.00  0.00    -0.324 OA
ATOM     28  H   UNL     1      52.270  36.986  24.384  1.00  0.00     0.221 HD
ENDBRANCH  23  27
ENDBRANCH  18  23
ENDBRANCH   2  18
TORSDOF 8
ENDMDL
MODEL 11
REMARK VINA RESULT:    -7.105      2.260      3.522
REMARK INTER + INTRA:         -11.070
REMARK INTER:                  -9.946
REMARK INTRA:                  -1.125
REMARK UNBOUND:                -1.058
REMARK SMILES CC(C)C[C@H](C(=O)Nc1ccc(-c2ccc(Cl)cc2)cc1)P(=O)(O)O
REMARK SMILES IDX 8 1 6 2 7 3 9 5 10 6 11 7 12 8 21 9 20 10 13 11 19 12 14 13
REMARK SMILES IDX 18 14 15 15 16 16 17 17 5 18 4 19 2 20 1 21 3 22 22 23 23 24
REMARK SMILES IDX 24 25 25 27
REMARK H PARENT 8 4 24 26 25 28
ROOT
ATOM      1  N   UNL     1      51.491  34.047  18.718  1.00  0.00    -0.325 N 
ATOM      2  C   UNL     1      51.930  33.504  19.928  1.00  0.00     0.239 C 
ATOM      3  O   UNL     1      51.453  32.524  20.455  1.00  0.00    -0.274 OA
ATOM      4  H   UNL     1      52.025  34.829  18.314  1.00  0.00     0.169 HD
ENDROOT
BRANCH   1   5
ATOM      5  C   UNL     1      50.324  33.570  17.998  1.00  0.00     0.041 A 
ATOM      6  C   UNL     1      49.023  34.002  18.237  1.00  0.00     0.027 A 
ATOM      7  C   UNL     1      47.970  33.537  17.439  1.00  0.00     0.011 A 
ATOM      8  C   UNL     1      48.233  32.654  16.401  1.00  0.00    -0.018 A 
ATOM      9  C   UNL     1      50.614  32.743  16.907  1.00  0.00     0.027 A 
ATOM     10  C   UNL     1      49.551  32.271  16.124  1.00  0.00     0.011 A 
BRANCH   8  11
ATOM     11  C   UNL     1      47.085  32.168  15.502  1.00  0.00    -0.018 A 
ATOM     12  C   UNL     1      46.390  31.033  15.831  1.00  0.00     0.010 A 
ATOM     13  C   UNL     1      46.813  32.860  14.332  1.00  0.00     0.010 A 
ATOM     14  C   UNL     1      45.370  30.577  15.009  1.00  0.00     0.021 A 
ATOM     15  C   UNL     1      45.799  32.408  13.491  1.00  0.00     0.021 A 
ATOM     16  C   UNL     1      45.095  31.270  13.851  1.00  0.00     0.041 A 
ATOM     17  Cl  UNL     1      43.814  30.668  12.763  1.00  0.00    -0.084 Cl
ENDBRANCH   8  11
ENDBRANCH   1   5
BRANCH   2  18
ATOM     18  C   UNL     1      53.067  34.292  20.515  1.00  0.00     0.194 C 
BRANCH  18  19
ATOM     19  C   UNL     1      53.910  34.856  19.354  1.00  0.00     0.029 C 
BRANCH  19  20
ATOM     20  C   UNL     1      55.406  34.614  19.504  1.00  0.00    -0.016 C 
ATOM     21  C   UNL     1      56.174  35.846  20.024  1.00  0.00     0.007 C 
ATOM     22  C   UNL     1      56.024  34.153  18.163  1.00  0.00     0.007 C 
ENDBRANCH  19  20
ENDBRANCH  18  19
BRANCH  18  23
ATOM     23  P   UNL     1      52.502  35.593  21.644  1.00  0.00     0.337 P 
ATOM     24  O   UNL     1      53.093  36.936  21.162  1.00  0.00    -0.260 OA
BRANCH  23  25
ATOM     25  O   UNL     1      51.009  35.652  21.541  1.00  0.00    -0.324 OA
ATOM     26  H   UNL     1      50.754  36.199  20.756  1.00  0.00     0.221 HD
ENDBRANCH  23  25
BRANCH  23  27
ATOM     27  O   UNL     1      53.036  35.269  23.022  1.00  0.00    -0.324 OA
ATOM     28  H   UNL     1      52.484  34.555  23.430  1.00  0.00     0.221 HD
ENDBRANCH  23  27
ENDBRANCH  18  23
ENDBRANCH   2  18
TORSDOF 8
ENDMDL
MODEL 12
REMARK VINA RESULT:    -6.513      4.839      9.343
REMARK INTER + INTRA:         -10.236
REMARK INTER:                  -9.074
REMARK INTRA:                  -1.162
REMARK UNBOUND:                -1.058
REMARK SMILES CC(C)C[C@H](C(=O)Nc1ccc(-c2ccc(Cl)cc2)cc1)P(=O)(O)O
REMARK SMILES IDX 8 1 6 2 7 3 9 5 10 6 11 7 12 8 21 9 20 10 13 11 19 12 14 13
REMARK SMILES IDX 18 14 15 15 16 16 17 17 5 18 4 19 2 20 1 21 3 22 22 23 23 24
REMARK SMILES IDX 24 25 25 27
REMARK H PARENT 8 4 24 26 25 28
ROOT
ATOM      1  N   UNL     1      53.561  34.673  19.899  1.00  0.00    -0.325 N 
ATOM      2  C   UNL     1      53.445  33.314  19.601  1.00  0.00     0.239 C 
ATOM      3  O   UNL     1      54.366  32.529  19.599  1.00  0.00    -0.274 OA
ATOM      4  H   UNL     1      52.699  35.233  19.960  1.00  0.00     0.169 HD
ENDROOT
BRANCH   1   5
ATOM      5  C   UNL     1      54.830  35.341  20.129  1.00  0.00     0.041 A 
ATOM      6  C   UNL     1      55.939  35.225  19.298  1.00  0.00     0.027 A 
ATOM      7  C   UNL     1      57.096  35.969  19.563  1.00  0.00     0.011 A 
ATOM      8  C   UNL     1      57.126  36.831  20.651  1.00  0.00    -0.018 A 
ATOM      9  C   UNL     1      54.816  36.264  21.180  1.00  0.00     0.027 A 
ATOM     10  C   UNL     1      55.985  36.991  21.447  1.00  0.00     0.011 A 
BRANCH   8  11
ATOM     11  C   UNL     1      58.382  37.673  20.924  1.00  0.00    -0.018 A 
ATOM     12  C   UNL     1      58.521  38.905  20.339  1.00  0.00     0.010 A 
ATOM     13  C   UNL     1      59.387  37.138  21.715  1.00  0.00     0.010 A 
ATOM     14  C   UNL     1      59.665  39.657  20.563  1.00  0.00     0.021 A 
ATOM     15  C   UNL     1      60.546  37.877  21.940  1.00  0.00     0.021 A 
ATOM     16  C   UNL     1      60.659  39.129  21.356  1.00  0.00     0.041 A 
ATOM     17  Cl  UNL     1      62.154  40.069  21.616  1.00  0.00    -0.084 Cl
ENDBRANCH   8  11
ENDBRANCH   1   5
BRANCH   2  18
ATOM     18  C   UNL     1      52.030  32.933  19.267  1.00  0.00     0.194 C 
BRANCH  18  19
ATOM     19  C   UNL     1      51.875  31.416  19.496  1.00  0.00     0.029 C 
BRANCH  19  20
ATOM     20  C   UNL     1      51.620  30.624  18.221  1.00  0.00    -0.016 C 
ATOM     21  C   UNL     1      52.883  29.936  17.665  1.00  0.00     0.007 C 
ATOM     22  C   UNL     1      51.006  31.529  17.127  1.00  0.00     0.007 C 
ENDBRANCH  19  20
ENDBRANCH  18  19
BRANCH  18  23
ATOM     23  P   UNL     1      50.811  33.894  20.202  1.00  0.00     0.337 P 
ATOM     24  O   UNL     1      49.469  33.129  20.170  1.00  0.00    -0.260 OA
BRANCH  23  25
ATOM     25  O   UNL     1      51.296  33.969  21.617  1.00  0.00    -0.324 OA
ATOM     26  H   UNL     1      50.836  33.280  22.160  1.00  0.00     0.221 HD
ENDBRANCH  23  25
BRANCH  23  27
ATOM     27  O   UNL     1      50.650  35.230  19.511  1.00  0.00    -0.324 OA
ATOM     28  H   UNL     1      51.375  35.348  18.847  1.00  0.00     0.221 HD
ENDBRANCH  23  27
ENDBRANCH  18  23
ENDBRANCH   2  18
TORSDOF 8
ENDMDL
MODEL 13
REMARK VINA RESULT:    -6.479      6.126     10.121
REMARK INTER + INTRA:         -10.189
REMARK INTER:                  -8.919
REMARK INTRA:                  -1.270
REMARK UNBOUND:                -1.058
REMARK SMILES CC(C)C[C@H](C(=O)Nc1ccc(-c2ccc(Cl)cc2)cc1)P(=O)(O)O
REMARK SMILES IDX 8 1 6 2 7 3 9 5 10 6 11 7 12 8 21 9 20 10 13 11 19 12 14 13
REMARK SMILES IDX 18 14 15 15 16 16 17 17 5 18 4 19 2 20 1 21 3 22 22 23 23 24
REMARK SMILES IDX 24 25 25 27
REMARK H PARENT 8 4 24 26 25 28
ROOT
ATOM      1  N   UNL     1      47.796  31.906  16.983  1.00  0.00    -0.325 N 
ATOM      2  C   UNL     1      47.019  32.593  16.048  1.00  0.00     0.239 C 
ATOM      3  O   UNL     1      47.265  33.702  15.632  1.00  0.00    -0.274 OA
ATOM      4  H   UNL     1      47.547  30.931  17.201  1.00  0.00     0.169 HD
ENDROOT
BRANCH   1   5
ATOM      5  C   UNL     1      48.937  32.490  17.666  1.00  0.00     0.041 A 
ATOM      6  C   UNL     1      50.203  32.624  17.105  1.00  0.00     0.027 A 
ATOM      7  C   UNL     1      51.222  33.269  17.818  1.00  0.00     0.011 A 
ATOM      8  C   UNL     1      50.960  33.783  19.080  1.00  0.00    -0.018 A 
ATOM      9  C   UNL     1      48.636  33.072  18.902  1.00  0.00     0.027 A 
ATOM     10  C   UNL     1      49.668  33.701  19.614  1.00  0.00     0.011 A 
BRANCH   8  11
ATOM     11  C   UNL     1      52.067  34.520  19.850  1.00  0.00    -0.018 A 
ATOM     12  C   UNL     1      51.738  35.383  20.864  1.00  0.00     0.010 A 
ATOM     13  C   UNL     1      53.385  34.343  19.460  1.00  0.00     0.010 A 
ATOM     14  C   UNL     1      52.732  36.071  21.544  1.00  0.00     0.021 A 
ATOM     15  C   UNL     1      54.394  35.035  20.126  1.00  0.00     0.021 A 
ATOM     16  C   UNL     1      54.042  35.888  21.161  1.00  0.00     0.041 A 
ATOM     17  Cl  UNL     1      55.327  36.800  22.000  1.00  0.00    -0.084 Cl
ENDBRANCH   8  11
ENDBRANCH   1   5
BRANCH   2  18
ATOM     18  C   UNL     1      45.821  31.792  15.621  1.00  0.00     0.194 C 
BRANCH  18  19
ATOM     19  C   UNL     1      45.441  32.225  14.190  1.00  0.00     0.029 C 
BRANCH  19  20
ATOM     20  C   UNL     1      44.025  32.772  14.067  1.00  0.00    -0.016 C 
ATOM     21  C   UNL     1      43.605  33.056  12.611  1.00  0.00     0.007 C 
ATOM     22  C   UNL     1      43.860  34.059  14.908  1.00  0.00     0.007 C 
ENDBRANCH  19  20
ENDBRANCH  18  19
BRANCH  18  23
ATOM     23  P   UNL     1      46.097  30.006  15.745  1.00  0.00     0.337 P 
ATOM     24  O   UNL     1      44.944  29.290  15.006  1.00  0.00    -0.260 OA
BRANCH  23  25
ATOM     25  O   UNL     1      47.386  29.706  15.042  1.00  0.00    -0.324 OA
ATOM     26  H   UNL     1      47.194  29.347  14.140  1.00  0.00     0.221 HD
ENDBRANCH  23  25
BRANCH  23  27
ATOM     27  O   UNL     1      46.067  29.636  17.211  1.00  0.00    -0.324 OA
ATOM     28  H   UNL     1      45.366  28.954  17.365  1.00  0.00     0.221 HD
ENDBRANCH  23  27
ENDBRANCH  18  23
ENDBRANCH   2  18
TORSDOF 8
ENDMDL
MODEL 14
REMARK VINA RESULT:    -6.356      7.479     10.127
REMARK INTER + INTRA:         -10.015
REMARK INTER:                  -9.253
REMARK INTRA:                  -0.761
REMARK UNBOUND:                -1.058
REMARK SMILES CC(C)C[C@H](C(=O)Nc1ccc(-c2ccc(Cl)cc2)cc1)P(=O)(O)O
REMARK SMILES IDX 8 1 6 2 7 3 9 5 10 6 11 7 12 8 21 9 20 10 13 11 19 12 14 13
REMARK SMILES IDX 18 14 15 15 16 16 17 17 5 18 4 19 2 20 1 21 3 22 22 23 23 24
REMARK SMILES IDX 24 25 25 27
REMARK H PARENT 8 4 24 26 25 28
ROOT
ATOM      1  N   UNL     1      47.759  32.530  15.886  1.00  0.00    -0.325 N 
ATOM      2  C   UNL     1      46.372  32.372  15.896  1.00  0.00     0.239 C 
ATOM      3  O   UNL     1      45.785  31.484  16.471  1.00  0.00    -0.274 OA
ATOM      4  H   UNL     1      48.149  33.372  15.440  1.00  0.00     0.169 HD
ENDROOT
BRANCH   1   5
ATOM      5  C   UNL     1      48.683  31.574  16.470  1.00  0.00     0.041 A 
ATOM      6  C   UNL     1      49.568  31.867  17.502  1.00  0.00     0.027 A 
ATOM      7  C   UNL     1      50.369  30.857  18.050  1.00  0.00     0.011 A 
ATOM      8  C   UNL     1      50.265  29.560  17.566  1.00  0.00    -0.018 A 
ATOM      9  C   UNL     1      48.510  30.258  16.027  1.00  0.00     0.027 A 
ATOM     10  C   UNL     1      49.328  29.257  16.571  1.00  0.00     0.011 A 
BRANCH   8  11
ATOM     11  C   UNL     1      51.118  28.442  18.188  1.00  0.00    -0.018 A 
ATOM     12  C   UNL     1      52.397  28.228  17.741  1.00  0.00     0.010 A 
ATOM     13  C   UNL     1      50.550  27.625  19.153  1.00  0.00     0.010 A 
ATOM     14  C   UNL     1      53.161  27.204  18.282  1.00  0.00     0.021 A 
ATOM     15  C   UNL     1      51.301  26.586  19.697  1.00  0.00     0.021 A 
ATOM     16  C   UNL     1      52.598  26.399  19.247  1.00  0.00     0.041 A 
ATOM     17  Cl  UNL     1      53.557  25.050  19.918  1.00  0.00    -0.084 Cl
ENDBRANCH   8  11
ENDBRANCH   1   5
BRANCH   2  18
ATOM     18  C   UNL     1      45.681  33.436  15.090  1.00  0.00     0.194 C 
BRANCH  18  19
ATOM     19  C   UNL     1      44.915  32.747  13.943  1.00  0.00     0.029 C 
BRANCH  19  20
ATOM     20  C   UNL     1      45.299  33.246  12.557  1.00  0.00    -0.016 C 
ATOM     21  C   UNL     1      44.185  34.060  11.869  1.00  0.00     0.007 C 
ATOM     22  C   UNL     1      45.710  32.067  11.644  1.00  0.00     0.007 C 
ENDBRANCH  19  20
ENDBRANCH  18  19
BRANCH  18  23
ATOM     23  P   UNL     1      44.603  34.485  16.100  1.00  0.00     0.337 P 
ATOM     24  O   UNL     1      43.597  35.185  15.159  1.00  0.00    -0.260 OA
BRANCH  23  25
ATOM     25  O   UNL     1      43.852  33.583  17.031  1.00  0.00    -0.324 OA
ATOM     26  H   UNL     1      43.758  32.688  16.618  1.00  0.00     0.221 HD
ENDBRANCH  23  25
BRANCH  23  27
ATOM     27  O   UNL     1      45.472  35.521  16.777  1.00  0.00    -0.324 OA
ATOM     28  H   UNL     1      45.642  36.269  16.151  1.00  0.00     0.221 HD
ENDBRANCH  23  27
ENDBRANCH  18  23
ENDBRANCH   2  18
TORSDOF 8
ENDMDL
MODEL 15
REMARK VINA RESULT:    -6.332      5.011      9.189
REMARK INTER + INTRA:          -9.981
REMARK INTER:                  -8.913
REMARK INTRA:                  -1.067
REMARK UNBOUND:                -1.058
REMARK SMILES CC(C)C[C@H](C(=O)Nc1ccc(-c2ccc(Cl)cc2)cc1)P(=O)(O)O
REMARK SMILES IDX 8 1 6 2 7 3 9 5 10 6 11 7 12 8 21 9 20 10 13 11 19 12 14 13
REMARK SMILES IDX 18 14 15 15 16 16 17 17 5 18 4 19 2 20 1 21 3 22 22 23 23 24
REMARK SMILES IDX 24 25 25 27
REMARK H PARENT 8 4 24 26 25 28
ROOT
ATOM      1  N   UNL     1      53.391  33.557  19.178  1.00  0.00    -0.325 N 
ATOM      2  C   UNL     1      52.627  33.654  18.013  1.00  0.00     0.239 C 
ATOM      3  O   UNL     1      52.900  34.361  17.069  1.00  0.00    -0.274 OA
ATOM      4  H   UNL     1      53.117  32.858  19.882  1.00  0.00     0.169 HD
ENDROOT
BRANCH   1   5
ATOM      5  C   UNL     1      54.551  34.387  19.452  1.00  0.00     0.041 A 
ATOM      6  C   UNL     1      55.696  34.420  18.664  1.00  0.00     0.027 A 
ATOM      7  C   UNL     1      56.734  35.309  18.970  1.00  0.00     0.011 A 
ATOM      8  C   UNL     1      56.608  36.166  20.055  1.00  0.00    -0.018 A 
ATOM      9  C   UNL     1      54.376  35.298  20.499  1.00  0.00     0.027 A 
ATOM     10  C   UNL     1      55.427  36.173  20.807  1.00  0.00     0.011 A 
BRANCH   8  11
ATOM     11  C   UNL     1      57.731  37.166  20.373  1.00  0.00    -0.018 A 
ATOM     12  C   UNL     1      57.460  38.510  20.413  1.00  0.00     0.010 A 
ATOM     13  C   UNL     1      59.021  36.690  20.552  1.00  0.00     0.010 A 
ATOM     14  C   UNL     1      58.475  39.418  20.673  1.00  0.00     0.021 A 
ATOM     15  C   UNL     1      60.053  37.591  20.804  1.00  0.00     0.021 A 
ATOM     16  C   UNL     1      59.754  38.943  20.860  1.00  0.00     0.041 A 
ATOM     17  Cl  UNL     1      61.077  40.106  21.153  1.00  0.00    -0.084 Cl
ENDBRANCH   8  11
ENDBRANCH   1   5
BRANCH   2  18
ATOM     18  C   UNL     1      51.406  32.780  18.070  1.00  0.00     0.194 C 
BRANCH  18  19
ATOM     19  C   UNL     1      51.800  31.449  18.742  1.00  0.00     0.029 C 
BRANCH  19  20
ATOM     20  C   UNL     1      51.564  30.224  17.868  1.00  0.00    -0.016 C 
ATOM     21  C   UNL     1      50.940  30.561  16.499  1.00  0.00     0.007 C 
ATOM     22  C   UNL     1      50.671  29.194  18.598  1.00  0.00     0.007 C 
ENDBRANCH  19  20
ENDBRANCH  18  19
BRANCH  18  23
ATOM     23  P   UNL     1      50.014  33.583  18.908  1.00  0.00     0.337 P 
ATOM     24  O   UNL     1      48.924  33.878  17.853  1.00  0.00    -0.260 OA
BRANCH  23  25
ATOM     25  O   UNL     1      49.473  32.605  19.906  1.00  0.00    -0.324 OA
ATOM     26  H   UNL     1      50.036  31.791  19.908  1.00  0.00     0.221 HD
ENDBRANCH  23  25
BRANCH  23  27
ATOM     27  O   UNL     1      50.518  34.882  19.496  1.00  0.00    -0.324 OA
ATOM     28  H   UNL     1      50.524  34.817  20.483  1.00  0.00     0.221 HD
ENDBRANCH  23  27
ENDBRANCH  18  23
ENDBRANCH   2  18
TORSDOF 8
ENDMDL
MODEL 16
REMARK VINA RESULT:    -6.284      2.421      2.989
REMARK INTER + INTRA:          -9.914
REMARK INTER:                  -8.943
REMARK INTRA:                  -0.971
REMARK UNBOUND:                -1.058
REMARK SMILES CC(C)C[C@H](C(=O)Nc1ccc(-c2ccc(Cl)cc2)cc1)P(=O)(O)O
REMARK SMILES IDX 8 1 6 2 7 3 9 5 10 6 11 7 12 8 21 9 20 10 13 11 19 12 14 13
REMARK SMILES IDX 18 14 15 15 16 16 17 17 5 18 4 19 2 20 1 21 3 22 22 23 23 24
REMARK SMILES IDX 24 25 25 27
REMARK H PARENT 8 4 24 26 25 28
ROOT
ATOM      1  N   UNL     1      55.207  34.805  19.568  1.00  0.00    -0.325 N 
ATOM      2  C   UNL     1      55.469  35.877  20.423  1.00  0.00     0.239 C 
ATOM      3  O   UNL     1      54.622  36.512  21.010  1.00  0.00    -0.274 OA
ATOM      4  H   UNL     1      56.007  34.277  19.191  1.00  0.00     0.169 HD
ENDROOT
BRANCH   1   5
ATOM      5  C   UNL     1      53.870  34.392  19.181  1.00  0.00     0.041 A 
ATOM      6  C   UNL     1      52.734  34.577  19.961  1.00  0.00     0.027 A 
ATOM      7  C   UNL     1      51.475  34.211  19.469  1.00  0.00     0.011 A 
ATOM      8  C   UNL     1      51.366  33.673  18.194  1.00  0.00    -0.018 A 
ATOM      9  C   UNL     1      53.767  33.926  17.865  1.00  0.00     0.027 A 
ATOM     10  C   UNL     1      52.504  33.547  17.388  1.00  0.00     0.011 A 
BRANCH   8  11
ATOM     11  C   UNL     1      49.982  33.302  17.637  1.00  0.00    -0.018 A 
ATOM     12  C   UNL     1      49.876  32.399  16.610  1.00  0.00     0.010 A 
ATOM     13  C   UNL     1      48.862  33.940  18.148  1.00  0.00     0.010 A 
ATOM     14  C   UNL     1      48.631  32.081  16.088  1.00  0.00     0.021 A 
ATOM     15  C   UNL     1      47.606  33.638  17.626  1.00  0.00     0.021 A 
ATOM     16  C   UNL     1      47.519  32.709  16.602  1.00  0.00     0.041 A 
ATOM     17  Cl  UNL     1      45.916  32.340  15.908  1.00  0.00    -0.084 Cl
ENDBRANCH   8  11
ENDBRANCH   1   5
BRANCH   2  18
ATOM     18  C   UNL     1      56.940  36.166  20.524  1.00  0.00     0.194 C 
BRANCH  18  19
ATOM     19  C   UNL     1      57.409  36.749  19.176  1.00  0.00     0.029 C 
BRANCH  19  20
ATOM     20  C   UNL     1      58.445  35.892  18.461  1.00  0.00    -0.016 C 
ATOM     21  C   UNL     1      57.953  35.339  17.108  1.00  0.00     0.007 C 
ATOM     22  C   UNL     1      58.899  34.717  19.359  1.00  0.00     0.007 C 
ENDBRANCH  19  20
ENDBRANCH  18  19
BRANCH  18  23
ATOM     23  P   UNL     1      57.342  37.255  21.916  1.00  0.00     0.337 P 
ATOM     24  O   UNL     1      58.880  37.311  22.054  1.00  0.00    -0.260 OA
BRANCH  23  25
ATOM     25  O   UNL     1      56.834  38.622  21.571  1.00  0.00    -0.324 OA
ATOM     26  H   UNL     1      56.253  38.565  20.771  1.00  0.00     0.221 HD
ENDBRANCH  23  25
BRANCH  23  27
ATOM     27  O   UNL     1      56.742  36.647  23.164  1.00  0.00    -0.324 OA
ATOM     28  H   UNL     1      55.966  37.189  23.455  1.00  0.00     0.221 HD
ENDBRANCH  23  27
ENDBRANCH  18  23
ENDBRANCH   2  18
TORSDOF 8
ENDMDL
MODEL 17
REMARK VINA RESULT:    -6.277      2.935      4.260
REMARK INTER + INTRA:          -9.903
REMARK INTER:                  -9.241
REMARK INTRA:                  -0.662
REMARK UNBOUND:                -1.058
REMARK SMILES CC(C)C[C@H](C(=O)Nc1ccc(-c2ccc(Cl)cc2)cc1)P(=O)(O)O
REMARK SMILES IDX 8 1 6 2 7 3 9 5 10 6 11 7 12 8 21 9 20 10 13 11 19 12 14 13
REMARK SMILES IDX 18 14 15 15 16 16 17 17 5 18 4 19 2 20 1 21 3 22 22 23 23 24
REMARK SMILES IDX 24 25 25 27
REMARK H PARENT 8 4 24 26 25 28
ROOT
ATOM      1  N   UNL     1      50.828  34.152  18.555  1.00  0.00    -0.325 N 
ATOM      2  C   UNL     1      51.039  34.226  19.933  1.00  0.00     0.239 C 
ATOM      3  O   UNL     1      50.372  33.649  20.763  1.00  0.00    -0.274 OA
ATOM      4  H   UNL     1      51.509  34.610  17.934  1.00  0.00     0.169 HD
ENDROOT
BRANCH   1   5
ATOM      5  C   UNL     1      49.701  33.466  17.949  1.00  0.00     0.041 A 
ATOM      6  C   UNL     1      48.432  34.018  17.802  1.00  0.00     0.027 A 
ATOM      7  C   UNL     1      47.428  33.304  17.136  1.00  0.00     0.011 A 
ATOM      8  C   UNL     1      47.708  32.049  16.613  1.00  0.00    -0.018 A 
ATOM      9  C   UNL     1      50.020  32.238  17.358  1.00  0.00     0.027 A 
ATOM     10  C   UNL     1      49.003  31.524  16.708  1.00  0.00     0.011 A 
BRANCH   8  11
ATOM     11  C   UNL     1      46.618  31.277  15.852  1.00  0.00    -0.018 A 
ATOM     12  C   UNL     1      46.265  30.014  16.254  1.00  0.00     0.010 A 
ATOM     13  C   UNL     1      46.051  31.855  14.726  1.00  0.00     0.010 A 
ATOM     14  C   UNL     1      45.300  29.305  15.554  1.00  0.00     0.021 A 
ATOM     15  C   UNL     1      45.089  31.150  14.007  1.00  0.00     0.021 A 
ATOM     16  C   UNL     1      44.732  29.883  14.441  1.00  0.00     0.041 A 
ATOM     17  Cl  UNL     1      43.521  28.962  13.508  1.00  0.00    -0.084 Cl
ENDBRANCH   8  11
ENDBRANCH   1   5
BRANCH   2  18
ATOM     18  C   UNL     1      52.195  35.123  20.275  1.00  0.00     0.194 C 
BRANCH  18  19
ATOM     19  C   UNL     1      52.087  35.495  21.768  1.00  0.00     0.029 C 
BRANCH  19  20
ATOM     20  C   UNL     1      53.210  36.398  22.260  1.00  0.00    -0.016 C 
ATOM     21  C   UNL     1      53.490  36.257  23.770  1.00  0.00     0.007 C 
ATOM     22  C   UNL     1      52.906  37.879  21.931  1.00  0.00     0.007 C 
ENDBRANCH  19  20
ENDBRANCH  18  19
BRANCH  18  23
ATOM     23  P   UNL     1      53.797  34.379  19.870  1.00  0.00     0.337 P 
ATOM     24  O   UNL     1      54.894  35.438  20.119  1.00  0.00    -0.260 OA
BRANCH  23  25
ATOM     25  O   UNL     1      54.004  33.232  20.811  1.00  0.00    -0.324 OA
ATOM     26  H   UNL     1      54.941  33.234  21.131  1.00  0.00     0.221 HD
ENDBRANCH  23  25
BRANCH  23  27
ATOM     27  O   UNL     1      53.773  34.007  18.404  1.00  0.00    -0.324 OA
ATOM     28  H   UNL     1      54.699  33.861  18.086  1.00  0.00     0.221 HD
ENDBRANCH  23  27
ENDBRANCH  18  23
ENDBRANCH   2  18
TORSDOF 8
ENDMDL
MODEL 18
REMARK VINA RESULT:    -6.207      5.223      9.045
REMARK INTER + INTRA:          -9.804
REMARK INTER:                  -8.523
REMARK INTRA:                  -1.281
REMARK UNBOUND:                -1.058
REMARK SMILES CC(C)C[C@H](C(=O)Nc1ccc(-c2ccc(Cl)cc2)cc1)P(=O)(O)O
REMARK SMILES IDX 8 1 6 2 7 3 9 5 10 6 11 7 12 8 21 9 20 10 13 11 19 12 14 13
REMARK SMILES IDX 18 14 15 15 16 16 17 17 5 18 4 19 2 20 1 21 3 22 22 23 23 24
REMARK SMILES IDX 24 25 25 27
REMARK H PARENT 8 4 24 26 25 28
ROOT
ATOM      1  N   UNL     1      51.604  33.366  18.378  1.00  0.00    -0.325 N 
ATOM      2  C   UNL     1      51.014  32.100  18.407  1.00  0.00     0.239 C 
ATOM      3  O   UNL     1      50.754  31.486  19.416  1.00  0.00    -0.274 OA
ATOM      4  H   UNL     1      51.699  33.838  17.468  1.00  0.00     0.169 HD
ENDROOT
BRANCH   1   5
ATOM      5  C   UNL     1      52.090  34.054  19.561  1.00  0.00     0.041 A 
ATOM      6  C   UNL     1      53.435  34.246  19.860  1.00  0.00     0.027 A 
ATOM      7  C   UNL     1      53.806  34.988  20.988  1.00  0.00     0.011 A 
ATOM      8  C   UNL     1      52.825  35.542  21.799  1.00  0.00    -0.018 A 
ATOM      9  C   UNL     1      51.093  34.672  20.322  1.00  0.00     0.027 A 
ATOM     10  C   UNL     1      51.474  35.400  21.459  1.00  0.00     0.011 A 
BRANCH   8  11
ATOM     11  C   UNL     1      53.228  36.385  23.019  1.00  0.00    -0.018 A 
ATOM     12  C   UNL     1      53.715  35.772  24.145  1.00  0.00     0.010 A 
ATOM     13  C   UNL     1      53.031  37.757  22.979  1.00  0.00     0.010 A 
ATOM     14  C   UNL     1      54.056  36.528  25.257  1.00  0.00     0.021 A 
ATOM     15  C   UNL     1      53.358  38.527  24.092  1.00  0.00     0.021 A 
ATOM     16  C   UNL     1      53.868  37.891  25.213  1.00  0.00     0.041 A 
ATOM     17  Cl  UNL     1      54.262  38.869  26.654  1.00  0.00    -0.084 Cl
ENDBRANCH   8  11
ENDBRANCH   1   5
BRANCH   2  18
ATOM     18  C   UNL     1      50.747  31.576  17.024  1.00  0.00     0.194 C 
BRANCH  18  19
ATOM     19  C   UNL     1      49.697  32.489  16.360  1.00  0.00     0.029 C 
BRANCH  19  20
ATOM     20  C   UNL     1      48.385  32.579  17.128  1.00  0.00    -0.016 C 
ATOM     21  C   UNL     1      47.211  31.875  16.419  1.00  0.00     0.007 C 
ATOM     22  C   UNL     1      48.009  34.055  17.398  1.00  0.00     0.007 C 
ENDBRANCH  19  20
ENDBRANCH  18  19
BRANCH  18  23
ATOM     23  P   UNL     1      52.256  31.434  16.030  1.00  0.00     0.337 P 
ATOM     24  O   UNL     1      52.552  32.816  15.406  1.00  0.00    -0.260 OA
BRANCH  23  25
ATOM     25  O   UNL     1      53.370  31.072  16.963  1.00  0.00    -0.324 OA
ATOM     26  H   UNL     1      53.665  31.880  17.453  1.00  0.00     0.221 HD
ENDBRANCH  23  25
BRANCH  23  27
ATOM     27  O   UNL     1      51.990  30.428  14.932  1.00  0.00    -0.324 OA
ATOM     28  H   UNL     1      51.422  29.697  15.284  1.00  0.00     0.221 HD
ENDBRANCH  23  27
ENDBRANCH  18  23
ENDBRANCH   2  18
TORSDOF 8
ENDMDL
MODEL 19
REMARK VINA RESULT:    -6.184      3.496      5.599
REMARK INTER + INTRA:          -9.773
REMARK INTER:                  -8.674
REMARK INTRA:                  -1.099
REMARK UNBOUND:                -1.058
REMARK SMILES CC(C)C[C@H](C(=O)Nc1ccc(-c2ccc(Cl)cc2)cc1)P(=O)(O)O
REMARK SMILES IDX 8 1 6 2 7 3 9 5 10 6 11 7 12 8 21 9 20 10 13 11 19 12 14 13
REMARK SMILES IDX 18 14 15 15 16 16 17 17 5 18 4 19 2 20 1 21 3 22 22 23 23 24
REMARK SMILES IDX 24 25 25 27
REMARK H PARENT 8 4 24 26 25 28
ROOT
ATOM      1  N   UNL     1      50.157  33.225  17.399  1.00  0.00    -0.325 N 
ATOM      2  C   UNL     1      50.728  32.231  18.197  1.00  0.00     0.239 C 
ATOM      3  O   UNL     1      50.514  31.046  18.076  1.00  0.00    -0.274 OA
ATOM      4  H   UNL     1      50.477  34.195  17.528  1.00  0.00     0.169 HD
ENDROOT
BRANCH   1   5
ATOM      5  C   UNL     1      49.138  32.967  16.397  1.00  0.00     0.041 A 
ATOM      6  C   UNL     1      47.897  33.593  16.361  1.00  0.00     0.027 A 
ATOM      7  C   UNL     1      47.008  33.332  15.311  1.00  0.00     0.011 A 
ATOM      8  C   UNL     1      47.377  32.455  14.300  1.00  0.00    -0.018 A 
ATOM      9  C   UNL     1      49.556  32.144  15.346  1.00  0.00     0.027 A 
ATOM     10  C   UNL     1      48.652  31.876  14.307  1.00  0.00     0.011 A 
BRANCH   8  11
ATOM     11  C   UNL     1      46.418  32.192  13.128  1.00  0.00    -0.018 A 
ATOM     12  C   UNL     1      45.068  32.108  13.354  1.00  0.00     0.010 A 
ATOM     13  C   UNL     1      46.947  31.982  11.864  1.00  0.00     0.010 A 
ATOM     14  C   UNL     1      44.201  31.845  12.304  1.00  0.00     0.021 A 
ATOM     15  C   UNL     1      46.089  31.706  10.802  1.00  0.00     0.021 A 
ATOM     16  C   UNL     1      44.727  31.645  11.047  1.00  0.00     0.041 A 
ATOM     17  Cl  UNL     1      43.625  31.263   9.696  1.00  0.00    -0.084 Cl
ENDBRANCH   8  11
ENDBRANCH   1   5
BRANCH   2  18
ATOM     18  C   UNL     1      51.639  32.808  19.243  1.00  0.00     0.194 C 
BRANCH  18  19
ATOM     19  C   UNL     1      52.902  33.342  18.538  1.00  0.00     0.029 C 
BRANCH  19  20
ATOM     20  C   UNL     1      54.150  33.324  19.411  1.00  0.00    -0.016 C 
ATOM     21  C   UNL     1      54.582  34.726  19.887  1.00  0.00     0.007 C 
ATOM     22  C   UNL     1      55.327  32.649  18.669  1.00  0.00     0.007 C 
ENDBRANCH  19  20
ENDBRANCH  18  19
BRANCH  18  23
ATOM     23  P   UNL     1      50.828  34.079  20.249  1.00  0.00     0.337 P 
ATOM     24  O   UNL     1      49.338  33.699  20.392  1.00  0.00    -0.260 OA
BRANCH  23  25
ATOM     25  O   UNL     1      51.471  34.051  21.602  1.00  0.00    -0.324 OA
ATOM     26  H   UNL     1      51.171  34.837  22.125  1.00  0.00     0.221 HD
ENDBRANCH  23  25
BRANCH  23  27
ATOM     27  O   UNL     1      50.948  35.394  19.511  1.00  0.00    -0.324 OA
ATOM     28  H   UNL     1      51.197  36.109  20.149  1.00  0.00     0.221 HD
ENDBRANCH  23  27
ENDBRANCH  18  23
ENDBRANCH   2  18
TORSDOF 8
ENDMDL
MODEL 20
REMARK VINA RESULT:    -6.155      5.859      9.508
REMARK INTER + INTRA:          -9.732
REMARK INTER:                  -8.582
REMARK INTRA:                  -1.150
REMARK UNBOUND:                -1.058
REMARK SMILES CC(C)C[C@H](C(=O)Nc1ccc(-c2ccc(Cl)cc2)cc1)P(=O)(O)O
REMARK SMILES IDX 8 1 6 2 7 3 9 5 10 6 11 7 12 8 21 9 20 10 13 11 19 12 14 13
REMARK SMILES IDX 18 14 15 15 16 16 17 17 5 18 4 19 2 20 1 21 3 22 22 23 23 24
REMARK SMILES IDX 24 25 25 27
REMARK H PARENT 8 4 24 26 25 28
ROOT
ATOM      1  N   UNL     1      49.286  31.754  18.164  1.00  0.00    -0.325 N 
ATOM      2  C   UNL     1      49.246  31.524  16.788  1.00  0.00     0.239 C 
ATOM      3  O   UNL     1      50.126  31.829  16.014  1.00  0.00    -0.274 OA
ATOM      4  H   UNL     1      48.523  31.374  18.743  1.00  0.00     0.169 HD
ENDROOT
BRANCH   1   5
ATOM      5  C   UNL     1      50.342  32.499  18.827  1.00  0.00     0.041 A 
ATOM      6  C   UNL     1      51.559  31.954  19.221  1.00  0.00     0.027 A 
ATOM      7  C   UNL     1      52.545  32.772  19.787  1.00  0.00     0.011 A 
ATOM      8  C   UNL     1      52.306  34.130  19.941  1.00  0.00    -0.018 A 
ATOM      9  C   UNL     1      50.117  33.878  18.902  1.00  0.00     0.027 A 
ATOM     10  C   UNL     1      51.104  34.686  19.485  1.00  0.00     0.011 A 
BRANCH   8  11
ATOM     11  C   UNL     1      53.399  35.036  20.531  1.00  0.00    -0.018 A 
ATOM     12  C   UNL     1      53.088  35.924  21.528  1.00  0.00     0.010 A 
ATOM     13  C   UNL     1      54.676  34.980  19.994  1.00  0.00     0.010 A 
ATOM     14  C   UNL     1      54.066  36.762  22.045  1.00  0.00     0.021 A 
ATOM     15  C   UNL     1      55.665  35.823  20.495  1.00  0.00     0.021 A 
ATOM     16  C   UNL     1      55.336  36.699  21.517  1.00  0.00     0.041 A 
ATOM     17  Cl  UNL     1      56.591  37.803  22.143  1.00  0.00    -0.084 Cl
ENDBRANCH   8  11
ENDBRANCH   1   5
BRANCH   2  18
ATOM     18  C   UNL     1      47.966  30.859  16.368  1.00  0.00     0.194 C 
BRANCH  18  19
ATOM     19  C   UNL     1      46.819  31.875  16.537  1.00  0.00     0.029 C 
BRANCH  19  20
ATOM     20  C   UNL     1      47.100  33.232  15.905  1.00  0.00    -0.016 C 
ATOM     21  C   UNL     1      47.060  34.397  16.914  1.00  0.00     0.007 C 
ATOM     22  C   UNL     1      46.105  33.516  14.755  1.00  0.00     0.007 C 
ENDBRANCH  19  20
ENDBRANCH  18  19
BRANCH  18  23
ATOM     23  P   UNL     1      48.047  30.193  14.684  1.00  0.00     0.337 P 
ATOM     24  O   UNL     1      48.936  28.930  14.709  1.00  0.00    -0.260 OA
BRANCH  23  25
ATOM     25  O   UNL     1      46.654  29.801  14.295  1.00  0.00    -0.324 OA
ATOM     26  H   UNL     1      46.311  30.435  13.616  1.00  0.00     0.221 HD
ENDBRANCH  23  25
BRANCH  23  27
ATOM     27  O   UNL     1      48.684  31.246  13.804  1.00  0.00    -0.324 OA
ATOM     28  H   UNL     1      48.907  32.041  14.349  1.00  0.00     0.221 HD
ENDBRANCH  23  27
ENDBRANCH  18  23
ENDBRANCH   2  18
TORSDOF 8
ENDMDL
